 Entering Gaussian System, Link 0=g03
 Input=3_1.com
 Output=3_1.log
 Initial command:
 /usr/local/g03/l1.exe /export/home/joe2/code/svnJ/J_from_g03/examples/naphthalene_b3lyp/Gau-12428.inp -scrdir=/export/home/joe2/code/svnJ/J_from_g03/examples/naphthalene_b3lyp/
 Entering Link 1 = /usr/local/g03/l1.exe PID=     12429.
  
 Copyright (c) 1988,1990,1992,1993,1995,1998,2003, Gaussian, Inc.
                  All Rights Reserved.
  
 This is the Gaussian(R) 03 program.  It is based on the
 the Gaussian(R) 98 system (copyright 1998, Gaussian, Inc.),
 the Gaussian(R) 94 system (copyright 1995, Gaussian, Inc.),
 the Gaussian 92(TM) system (copyright 1992, Gaussian, Inc.),
 the Gaussian 90(TM) system (copyright 1990, Gaussian, Inc.),
 the Gaussian 88(TM) system (copyright 1988, Gaussian, Inc.),
 the Gaussian 86(TM) system (copyright 1986, Carnegie Mellon
 University), and the Gaussian 82(TM) system (copyright 1983,
 Carnegie Mellon University). Gaussian is a federally registered
 trademark of Gaussian, Inc.
  
 This software contains proprietary and confidential information,
 including trade secrets, belonging to Gaussian, Inc.
  
 This software is provided under written license and may be
 used, copied, transmitted, or stored only in accord with that
 written license.
  
 The following legend is applicable only to US Government
 contracts under DFARS:
  
                    RESTRICTED RIGHTS LEGEND
  
 Use, duplication or disclosure by the US Government is subject
 to restrictions as set forth in subparagraph (c)(1)(ii) of the
 Rights in Technical Data and Computer Software clause at DFARS
 252.227-7013.
  
 Gaussian, Inc.
 Carnegie Office Park, Building 6, Pittsburgh, PA 15106 USA
  
 The following legend is applicable only to US Government
 contracts under FAR:
  
                    RESTRICTED RIGHTS LEGEND
  
 Use, reproduction and disclosure by the US Government is subject
 to restrictions as set forth in subparagraph (c) of the
 Commercial Computer Software - Restricted Rights clause at FAR
 52.227-19.
  
 Gaussian, Inc.
 Carnegie Office Park, Building 6, Pittsburgh, PA 15106 USA
  
  
 ---------------------------------------------------------------
 Warning -- This program may not be used in any manner that
 competes with the business of Gaussian, Inc. or will provide
 assistance to any competitor of Gaussian, Inc.  The licensee
 of this program is prohibited from giving any competitor of
 Gaussian, Inc. access to this program.  By using this program,
 the user acknowledges that Gaussian, Inc. is engaged in the
 business of creating and licensing software in the field of
 computational chemistry and represents and warrants to the
 licensee that it is not a competitor of Gaussian, Inc. and that
 it will not use this program in any manner prohibited above.
 ---------------------------------------------------------------
  

 Cite this work as:
 Gaussian 03, Revision B.05,
 M. J. Frisch, G. W. Trucks, H. B. Schlegel, G. E. Scuseria, 
 M. A. Robb, J. R. Cheeseman, J. A. Montgomery, Jr., T. Vreven, 
 K. N. Kudin, J. C. Burant, J. M. Millam, S. S. Iyengar, J. Tomasi, 
 V. Barone, B. Mennucci, M. Cossi, G. Scalmani, N. Rega, 
 G. A. Petersson, H. Nakatsuji, M. Hada, M. Ehara, K. Toyota, 
 R. Fukuda, J. Hasegawa, M. Ishida, T. Nakajima, Y. Honda, O. Kitao, 
 H. Nakai, M. Klene, X. Li, J. E. Knox, H. P. Hratchian, J. B. Cross, 
 C. Adamo, J. Jaramillo, R. Gomperts, R. E. Stratmann, O. Yazyev, 
 A. J. Austin, R. Cammi, C. Pomelli, J. W. Ochterski, P. Y. Ayala, 
 K. Morokuma, G. A. Voth, P. Salvador, J. J. Dannenberg, 
 V. G. Zakrzewski, S. Dapprich, A. D. Daniels, M. C. Strain, 
 O. Farkas, D. K. Malick, A. D. Rabuck, K. Raghavachari, 
 J. B. Foresman, J. V. Ortiz, Q. Cui, A. G. Baboul, S. Clifford, 
 J. Cioslowski, B. B. Stefanov, G. Liu, A. Liashenko, P. Piskorz, 
 I. Komaromi, R. L. Martin, D. J. Fox, T. Keith, M. A. Al-Laham, 
 C. Y. Peng, A. Nanayakkara, M. Challacombe, P. M. W. Gill, 
 B. Johnson, W. Chen, M. W. Wong, C. Gonzalez, and J. A. Pople, 
 Gaussian, Inc., Pittsburgh PA, 2003.
 
 *************************************************
 Gaussian 03:  x86_64-Linux-G03RevB.05  8-Nov-2003
                    10-Oct-2007 
 *************************************************
 ------------------------------------------
 # b3lyp/6-31g* punch=mo iop(3/33=1) nosymm
 ------------------------------------------
 1/38=1/1;
 2/15=1,17=6,18=5,40=1/2;
 3/5=1,6=6,7=1,11=2,16=1,25=1,30=1,33=1,74=-5/1,2,3;
 4//1;
 5/5=2,32=1,38=5/2;
 6/7=2,8=2,9=2,10=2,28=1/1;
 99/5=1,9=1,10=32/99;
 ----------------------------------------------------------------------
 04/10/07: Geometry from napthalene_b3lyp_of.log and reorientated to pu
 t long axi geometric centre on 3
 ----------------------------------------------------------------------
 Symbolic Z-matrix:
 Charge =  0 Multiplicity = 1
 C                    -2.4336   -0.70848   3. 
 C                    -1.24478  -1.40258   3. 
 C                    0.        -0.71689   3. 
 C                     0.        0.71689   3. 
 C                    -1.24476   1.40257   3. 
 C                    -2.4336    0.70848   3. 
 H                     1.24204  -2.49027   3. 
 H                    -3.37834  -1.24559   3. 
 H                    -1.24204  -2.49028   3. 
 C                     1.24476  -1.40258   3. 
 C                     1.24478   1.40258   3. 
 H                    -1.24204   2.49027   3. 
 H                    -3.37833   1.24559   3. 
 C                     2.4336    0.70848   3. 
 C                     2.43359  -0.70848   3. 
 H                     1.24203   2.49028   3. 
 H                     3.37835   1.24559   3. 
 H                     3.37834  -1.24559   3. 
 
                          Input orientation:                          
 ---------------------------------------------------------------------
 Center     Atomic     Atomic              Coordinates (Angstroms)
 Number     Number      Type              X           Y           Z
 ---------------------------------------------------------------------
    1          6             0       -2.433600   -0.708480    3.000000
    2          6             0       -1.244780   -1.402580    3.000000
    3          6             0       -0.000002   -0.716892    3.000000
    4          6             0        0.000002    0.716891    3.000000
    5          6             0       -1.244760    1.402570    3.000000
    6          6             0       -2.433600    0.708481    3.000000
    7          1             0        1.242040   -2.490270    3.000000
    8          1             0       -3.378340   -1.245590    3.000000
    9          1             0       -1.242040   -2.490280    3.000000
   10          6             0        1.244760   -1.402580    3.000000
   11          6             0        1.244780    1.402580    3.000000
   12          1             0       -1.242040    2.490270    3.000000
   13          1             0       -3.378330    1.245590    3.000000
   14          6             0        2.433600    0.708481    3.000000
   15          6             0        2.433590   -0.708480    3.000000
   16          1             0        1.242030    2.490280    3.000000
   17          1             0        3.378350    1.245590    3.000000
   18          1             0        3.378340   -1.245590    3.000000
 ---------------------------------------------------------------------
                    Distance matrix (angstroms):
                    1          2          3          4          5
     1  C    0.000000
     2  C    1.376615   0.000000
     3  C    2.433613   1.421141   0.000000
     4  C    2.820302   2.457975   1.433783   0.000000
     5  C    2.422782   2.805150   2.457955   1.421122   0.000000
     6  C    1.416961   2.422782   2.820299   2.433617   1.376626
     7  H    4.084741   2.714285   2.165072   3.439264   4.619348
     8  H    1.086748   2.139328   3.419458   3.906985   3.400723
     9  H    2.143508   1.087703   2.165078   3.439275   3.892851
    10  C    3.743275   2.489540   1.421126   2.457962   3.750543
    11  C    4.241115   3.750578   2.457975   1.421141   2.489540
    12  H    3.413476   3.892851   3.439265   2.165073   1.087703
    13  H    2.170462   3.400712   3.906973   3.419452   2.139337
    14  C    5.069262   4.241115   2.820302   2.433612   3.743273
    15  C    4.867190   3.743285   2.433606   2.820289   4.241084
    16  H    4.872609   4.619370   3.439272   2.165073   2.714266
    17  H    6.131652   5.327864   3.906993   3.419467   4.625774
    18  H    5.836706   4.625785   3.419461   3.906981   5.327833
                    6          7          8          9         10
     6  C    0.000000
     7  H    4.872611   0.000000
     8  H    2.170467   4.785096   0.000000
     9  H    3.413486   2.484080   2.472454   0.000000
    10  C    4.241098   1.087693   4.625765   2.714271   0.000000
    11  C    3.743294   3.892851   5.327855   4.619376   2.805160
    12  H    2.143499   5.565648   4.303537   4.980550   4.619357
    13  H    1.086739   5.941756   2.491180   4.303540   5.327829
    14  C    4.867200   3.413477   6.131643   4.872618   2.422792
    15  C    5.069252   2.143494   5.836696   4.084736   1.376623
    16  H    4.084735   4.980550   5.941763   5.565661   3.892861
    17  H    5.836716   4.303542   7.201308   5.941778   3.400737
    18  H    6.131643   2.472449   6.756680   4.785098   2.139348
                   11         12         13         14         15
    11  C    0.000000
    12  H    2.714285   0.000000
    13  H    4.625775   2.472441   0.000000
    14  C    1.376614   4.084740   5.836696   0.000000
    15  C    2.422776   4.872603   6.131623   1.416961   0.000000
    16  H    1.087703   2.484070   4.785079   2.143513   3.413485
    17  H    2.139338   4.785105   6.756680   1.086756   2.170475
    18  H    3.400718   5.941764   7.201289   2.170467   1.086757
                   16         17         18
    16  H    0.000000
    17  H    2.472472   0.000000
    18  H    4.303550   2.491180   0.000000
 Symmetry turned off by external request.
 Stoichiometry    C10H8
 Framework group  CS[SG(C10H8)]
 Deg. of freedom    33
 Full point group                 CS      NOp   2
 Rotational constants (GHZ):      3.1175258      1.2299988      0.8820084
 Standard basis: 6-31G(d) (6D, 7F)
                         Coordinates in L301:                         
 ---------------------------------------------------------------------
 Center     Atomic     Atomic              Coordinates (Angstroms)
 Number     Number      Type              X           Y           Z
 ---------------------------------------------------------------------
    1          6             0       -2.433600   -0.708480    3.000000
    2          6             0       -1.244780   -1.402580    3.000000
    3          6             0       -0.000002   -0.716892    3.000000
    4          6             0        0.000002    0.716891    3.000000
    5          6             0       -1.244760    1.402570    3.000000
    6          6             0       -2.433600    0.708481    3.000000
    7          1             0        1.242040   -2.490270    3.000000
    8          1             0       -3.378340   -1.245590    3.000000
    9          1             0       -1.242040   -2.490280    3.000000
   10          6             0        1.244760   -1.402580    3.000000
   11          6             0        1.244780    1.402580    3.000000
   12          1             0       -1.242040    2.490270    3.000000
   13          1             0       -3.378330    1.245590    3.000000
   14          6             0        2.433600    0.708481    3.000000
   15          6             0        2.433590   -0.708480    3.000000
   16          1             0        1.242030    2.490280    3.000000
   17          1             0        3.378350    1.245590    3.000000
   18          1             0        3.378340   -1.245590    3.000000
 ---------------------------------------------------------------------
 LdAtmC:  AtmChg=     6.000000     6.000000     6.000000     6.000000     6.000000
 LdAtmC:  AtmChg=     6.000000     1.000000     1.000000     1.000000     6.000000
 LdAtmC:  AtmChg=     6.000000     1.000000     1.000000     6.000000     6.000000
 LdAtmC:  AtmChg=     1.000000     1.000000     1.000000
 AtZEff=  -3.6000000  -3.6000000  -3.6000000  -3.6000000  -3.6000000  -3.6000000  -1.0000000  -1.0000000  -1.0000000  -3.6000000
 AtZEff=  -3.6000000  -1.0000000  -1.0000000  -3.6000000  -3.6000000  -1.0000000  -1.0000000  -1.0000000
 Integral buffers will be    131072 words long.
 Raffenetti 2 integral format.
 Two-electron integral symmetry is turned off.
   166 basis functions,   312 primitive gaussians,   166 cartesian basis functions
    34 alpha electrons       34 beta electrons
       nuclear repulsion energy       457.1899839162 Hartrees.
 NAtoms=   18 NActive=   18 NUniq=   18 SFac= 1.00D+00 NAtFMM=   60 Big=F
 NPDir=0 NMtPBC=     1 NCelOv=     1 NCel=       1 NClECP=     1 NCelD=      1
         NCelK=      1 NCelE2=     1 NClLst=     1 CellRange=     0.0.
 One-electron integrals computed using PRISM.
 Entering OneElI...
 Calculate overlap and kinetic energy integrals
    NBasis = 166  MinDer = 0  MaxDer = 0
 Requested accuracy = 0.1000D-12
 PrsmSu:  NPrtUS=   1 ThrOK=F
 PRISM was handed     6091965 working-precision words and  1550 shell-pairs
 *** Overlap *** 
                1             2             3             4             5
      1  0.100000D+01
      2  0.219059D+00  0.100000D+01
      3  0.000000D+00  0.000000D+00  0.100000D+01
      4  0.000000D+00  0.000000D+00  0.000000D+00  0.100000D+01
      5  0.000000D+00  0.000000D+00  0.000000D+00  0.000000D+00  0.100000D+01
      6  0.184261D+00  0.812273D+00  0.000000D+00  0.000000D+00  0.000000D+00
      7  0.000000D+00  0.000000D+00  0.569754D+00  0.000000D+00  0.000000D+00
      8  0.000000D+00  0.000000D+00  0.000000D+00  0.569754D+00  0.000000D+00
      9  0.000000D+00  0.000000D+00  0.000000D+00  0.000000D+00  0.569754D+00
     10  0.791027D-01  0.710235D+00  0.000000D+00  0.000000D+00  0.000000D+00
     11  0.791027D-01  0.710235D+00  0.000000D+00  0.000000D+00  0.000000D+00
     12  0.791027D-01  0.710235D+00  0.000000D+00  0.000000D+00  0.000000D+00
     13  0.000000D+00  0.000000D+00  0.000000D+00  0.000000D+00  0.000000D+00
     14  0.000000D+00  0.000000D+00  0.000000D+00  0.000000D+00  0.000000D+00
     15  0.000000D+00  0.000000D+00  0.000000D+00  0.000000D+00  0.000000D+00
     16  0.297463D-05  0.168401D-01  0.325131D-01 -0.189830D-01  0.000000D+00
     17  0.168401D-01  0.188257D+00  0.229497D+00 -0.133993D+00  0.000000D+00
     18 -0.325131D-01 -0.229497D+00 -0.213344D+00  0.186325D+00  0.000000D+00
     19  0.189830D-01  0.133993D+00  0.186325D+00 -0.300299D-02  0.000000D+00
     20  0.000000D+00  0.000000D+00  0.000000D+00  0.000000D+00  0.105784D+00
     21  0.612734D-01  0.345869D+00  0.215241D+00 -0.125670D+00  0.000000D+00
     22 -0.109026D+00 -0.478331D+00 -0.768742D-01  0.181072D+00  0.000000D+00
     23  0.636553D-01  0.279277D+00  0.181072D+00  0.127537D+00  0.000000D+00
     24  0.000000D+00  0.000000D+00  0.000000D+00  0.000000D+00  0.233257D+00
     25  0.337041D-01  0.256701D+00  0.243597D+00 -0.240428D+00  0.000000D+00
     26  0.121023D-01  0.143036D+00  0.215242D+00 -0.274686D-01  0.000000D+00
     27  0.930030D-03  0.842487D-01  0.113588D+00 -0.663188D-01  0.000000D+00
     28 -0.331434D-01 -0.174395D+00 -0.216520D+00  0.304093D-01  0.000000D+00
     29  0.000000D+00  0.000000D+00  0.000000D+00  0.000000D+00 -0.145661D+00
     30  0.000000D+00  0.000000D+00  0.000000D+00  0.000000D+00  0.850453D-01
     31  0.000000D+00  0.170334D-04  0.657475D-04  0.000000D+00  0.000000D+00
     32  0.170334D-04  0.410026D-02  0.917827D-02 -0.317257D-04  0.000000D+00
     33 -0.657475D-04 -0.917827D-02 -0.191117D-01  0.722628D-04  0.000000D+00
     34  0.000000D+00  0.317257D-04  0.722628D-04  0.179376D-02  0.000000D+00
     35  0.000000D+00  0.000000D+00  0.000000D+00  0.000000D+00  0.179401D-02
     36  0.591106D-02  0.557693D-01  0.667027D-01 -0.230565D-03  0.000000D+00
     37 -0.215138D-01 -0.158935D+00 -0.160149D+00  0.675633D-03  0.000000D+00
     38  0.743648D-04  0.549376D-03  0.675633D-03  0.353095D-01  0.000000D+00
     39  0.000000D+00  0.000000D+00  0.000000D+00  0.000000D+00  0.353118D-01
     40  0.101134D-04  0.833547D-02  0.191979D-01 -0.764088D-04  0.000000D+00
     41  0.000000D+00  0.809310D-03  0.213074D-02  0.268402D-05  0.000000D+00
     42  0.000000D+00  0.809220D-03  0.213050D-02 -0.736430D-05  0.000000D+00
     43  0.000000D+00 -0.450599D-04 -0.110886D-03 -0.251732D-02  0.000000D+00
     44  0.000000D+00  0.000000D+00  0.000000D+00  0.000000D+00 -0.251773D-02
     45  0.000000D+00  0.000000D+00  0.000000D+00  0.000000D+00  0.870281D-05
     46  0.000000D+00  0.000000D+00  0.209645D-05  0.122790D-05  0.000000D+00
     47  0.000000D+00  0.573013D-03  0.127119D-02  0.744539D-03  0.000000D+00
     48 -0.209645D-05 -0.127119D-02 -0.259132D-02 -0.166149D-02  0.000000D+00
     49 -0.122790D-05 -0.744539D-03 -0.166149D-02 -0.727726D-03  0.000000D+00
     50  0.000000D+00  0.000000D+00  0.000000D+00  0.000000D+00  0.245415D-03
     51  0.181819D-02  0.221262D-01  0.258443D-01  0.151371D-01  0.000000D+00
     52 -0.661489D-02 -0.632033D-01 -0.618548D-01 -0.442421D-01  0.000000D+00
     53 -0.387437D-02 -0.370184D-01 -0.442421D-01 -0.122311D-01  0.000000D+00
     54  0.000000D+00  0.000000D+00  0.000000D+00  0.000000D+00  0.136817D-01
     55  0.000000D+00  0.796565D-03  0.182077D-02  0.122830D-02  0.000000D+00
     56  0.000000D+00  0.323983D-03  0.852785D-03  0.337616D-03  0.000000D+00
     57  0.000000D+00  0.772084D-04  0.203006D-03  0.118902D-03  0.000000D+00
     58  0.000000D+00  0.729765D-03  0.178135D-02  0.886117D-03  0.000000D+00
     59  0.000000D+00  0.000000D+00  0.000000D+00  0.000000D+00 -0.239333D-03
     60  0.000000D+00  0.000000D+00  0.000000D+00  0.000000D+00 -0.140178D-03
     61  0.000000D+00  0.186254D-04  0.351268D-04  0.623754D-04  0.000000D+00
     62  0.186254D-04  0.431407D-02  0.471933D-02  0.838023D-02  0.000000D+00
     63 -0.351268D-04 -0.471933D-02 -0.336651D-02 -0.933287D-02  0.000000D+00
     64 -0.623754D-04 -0.838023D-02 -0.933287D-02 -0.146833D-01  0.000000D+00
     65  0.000000D+00  0.000000D+00  0.000000D+00  0.000000D+00  0.188930D-02
     66  0.609431D-02  0.571185D-01  0.333959D-01  0.593019D-01  0.000000D+00
     67 -0.108356D-01 -0.795145D-01 -0.116192D-01 -0.848969D-01  0.000000D+00
     68 -0.192411D-01 -0.141196D+00 -0.848969D-01 -0.114563D+00  0.000000D+00
     69  0.000000D+00  0.000000D+00  0.000000D+00  0.000000D+00  0.361905D-01
     70  0.280098D-05  0.276849D-02  0.207204D-02  0.635997D-02  0.000000D+00
     71  0.862345D-05  0.687791D-02  0.891186D-02  0.131444D-01  0.000000D+00
     72  0.000000D+00  0.859963D-03  0.110612D-02  0.196416D-02  0.000000D+00
     73  0.831689D-05  0.586994D-02  0.529231D-02  0.122126D-01  0.000000D+00
     74  0.000000D+00  0.000000D+00  0.000000D+00  0.000000D+00 -0.130733D-02
     75  0.000000D+00  0.000000D+00  0.000000D+00  0.000000D+00 -0.232146D-02
     76  0.156902D-05  0.138638D-01  0.000000D+00  0.318367D-01  0.000000D+00
     77  0.138638D-01  0.169808D+00  0.000000D+00  0.244929D+00  0.000000D+00
     78  0.000000D+00  0.000000D+00  0.938238D-01  0.000000D+00  0.000000D+00
     79 -0.318367D-01 -0.244929D+00  0.000000D+00 -0.306209D+00  0.000000D+00
     80  0.000000D+00  0.000000D+00  0.000000D+00  0.000000D+00  0.938238D-01
     81  0.573903D-01  0.328707D+00  0.000000D+00  0.243301D+00  0.000000D+00
     82  0.000000D+00  0.000000D+00  0.221214D+00  0.000000D+00  0.000000D+00
     83 -0.121710D+00 -0.541962D+00  0.000000D+00 -0.196535D+00  0.000000D+00
     84  0.000000D+00  0.000000D+00  0.000000D+00  0.000000D+00  0.221214D+00
     85  0.715466D-03  0.740435D-01  0.000000D+00  0.118459D+00  0.000000D+00
     86  0.361643D-01  0.291289D+00  0.000000D+00  0.380023D+00  0.000000D+00
     87  0.715466D-03  0.740435D-01  0.000000D+00  0.118459D+00  0.000000D+00
     88  0.000000D+00  0.000000D+00 -0.150794D+00  0.000000D+00  0.000000D+00
     89  0.000000D+00  0.000000D+00  0.000000D+00  0.000000D+00  0.000000D+00
     90  0.000000D+00  0.000000D+00  0.000000D+00  0.000000D+00 -0.150794D+00
     91  0.000000D+00  0.000000D+00  0.000000D+00  0.000000D+00  0.000000D+00
     92  0.168305D-04  0.520511D-03  0.837543D-03 -0.406004D-03  0.000000D+00
     93  0.332109D-01  0.275741D+00 -0.322880D+00 -0.183566D+00  0.000000D+00
     94  0.925660D-01  0.477611D+00 -0.231081D+00 -0.131376D+00  0.000000D+00
     95  0.388838D-04  0.747367D-02  0.898029D-02 -0.134287D-01  0.000000D+00
     96  0.138705D-01  0.107392D+00  0.620357D-01 -0.927651D-01  0.000000D+00
     97  0.000000D+00  0.000000D+00  0.000000D+00  0.000000D+00  0.000000D+00
     98  0.000000D+00  0.159503D-05  0.532513D-05 -0.100484D-05  0.000000D+00
     99  0.000000D+00 -0.532513D-05 -0.171063D-04  0.335551D-05  0.000000D+00
    100  0.000000D+00  0.100484D-05  0.335551D-05  0.000000D+00  0.000000D+00
    101  0.000000D+00  0.000000D+00  0.000000D+00  0.000000D+00  0.000000D+00
    102  0.542015D-04  0.139127D-02  0.233971D-02 -0.441499D-03  0.000000D+00
    103 -0.297723D-03 -0.603383D-02 -0.945915D-02  0.193956D-02  0.000000D+00
    104  0.561798D-04  0.113857D-02  0.193956D-02  0.453478D-03  0.000000D+00
    105  0.000000D+00  0.000000D+00  0.000000D+00  0.000000D+00  0.819469D-03
    106  0.000000D+00  0.155867D-05  0.581481D-05 -0.116856D-05  0.000000D+00
    107  0.000000D+00  0.000000D+00  0.000000D+00  0.000000D+00  0.000000D+00
    108  0.000000D+00  0.000000D+00  0.000000D+00  0.000000D+00  0.000000D+00
    109  0.000000D+00  0.000000D+00 -0.187146D-05  0.000000D+00  0.000000D+00
    110  0.000000D+00  0.000000D+00  0.000000D+00  0.000000D+00  0.000000D+00
    111  0.000000D+00  0.000000D+00  0.000000D+00  0.000000D+00  0.000000D+00
    112  0.000000D+00  0.000000D+00  0.000000D+00  0.000000D+00  0.000000D+00
    113  0.000000D+00  0.000000D+00  0.000000D+00  0.000000D+00  0.000000D+00
    114  0.000000D+00  0.000000D+00  0.000000D+00  0.000000D+00  0.000000D+00
    115  0.000000D+00  0.000000D+00  0.000000D+00  0.000000D+00  0.000000D+00
    116  0.000000D+00  0.000000D+00  0.000000D+00  0.000000D+00  0.000000D+00
    117  0.541864D-05  0.225303D-03  0.371534D-03  0.213227D-03  0.000000D+00
    118 -0.297430D-04 -0.978781D-03 -0.149822D-02 -0.934527D-03  0.000000D+00
    119 -0.170698D-04 -0.561733D-03 -0.934527D-03 -0.406208D-03  0.000000D+00
    120  0.000000D+00  0.000000D+00  0.000000D+00  0.000000D+00  0.130127D-03
    121  0.000000D+00  0.000000D+00  0.000000D+00  0.000000D+00  0.000000D+00
    122  0.000000D+00  0.000000D+00  0.000000D+00  0.000000D+00  0.000000D+00
    123  0.000000D+00  0.000000D+00  0.000000D+00  0.000000D+00  0.000000D+00
    124  0.000000D+00  0.000000D+00  0.000000D+00  0.000000D+00  0.000000D+00
    125  0.000000D+00  0.000000D+00  0.000000D+00  0.000000D+00  0.000000D+00
    126  0.000000D+00  0.000000D+00  0.000000D+00  0.000000D+00  0.000000D+00
    127  0.000000D+00  0.447807D-05  0.523579D-05  0.140555D-04  0.000000D+00
    128  0.274999D-03  0.481313D-02  0.258685D-02  0.694442D-02  0.000000D+00
    129  0.309822D-04  0.661175D-02 -0.628658D-02  0.130031D-01  0.000000D+00
    130  0.130023D-01  0.102055D+00 -0.466665D-01  0.965246D-01  0.000000D+00
    131  0.000000D+00  0.000000D+00  0.000000D+00  0.000000D+00  0.000000D+00
    132  0.000000D+00  0.000000D+00  0.000000D+00  0.000000D+00  0.000000D+00
    133  0.000000D+00  0.000000D+00  0.000000D+00  0.000000D+00  0.000000D+00
    134  0.000000D+00  0.000000D+00  0.000000D+00  0.000000D+00  0.000000D+00
    135  0.000000D+00  0.000000D+00  0.000000D+00  0.000000D+00  0.000000D+00
    136  0.000000D+00  0.655146D-05  0.139813D-04  0.407031D-05  0.000000D+00
    137  0.000000D+00 -0.377285D-04 -0.771574D-04 -0.235398D-04  0.000000D+00
    138  0.000000D+00 -0.109837D-04 -0.235398D-04 -0.315222D-05  0.000000D+00
    139  0.000000D+00  0.000000D+00  0.000000D+00  0.000000D+00  0.370079D-05
    140  0.000000D+00  0.000000D+00  0.000000D+00  0.000000D+00  0.000000D+00
    141  0.000000D+00  0.000000D+00  0.000000D+00  0.000000D+00  0.000000D+00
    142  0.000000D+00  0.000000D+00  0.000000D+00  0.000000D+00  0.000000D+00
    143  0.000000D+00  0.000000D+00  0.000000D+00  0.000000D+00  0.000000D+00
    144  0.000000D+00  0.000000D+00  0.000000D+00  0.000000D+00  0.000000D+00
    145  0.000000D+00  0.000000D+00  0.000000D+00  0.000000D+00  0.000000D+00
    146  0.000000D+00  0.000000D+00  0.000000D+00  0.000000D+00  0.000000D+00
    147  0.000000D+00  0.000000D+00  0.000000D+00  0.000000D+00  0.000000D+00
    148  0.000000D+00  0.000000D+00  0.000000D+00  0.000000D+00  0.000000D+00
    149  0.000000D+00  0.000000D+00  0.000000D+00  0.000000D+00  0.000000D+00
    150  0.000000D+00  0.000000D+00  0.000000D+00  0.000000D+00  0.000000D+00
    151  0.000000D+00  0.164700D-04  0.353004D-04  0.000000D+00  0.000000D+00
    152 -0.144884D-05 -0.948143D-04 -0.194919D-03  0.000000D+00  0.000000D+00
    153  0.000000D+00  0.000000D+00  0.000000D+00  0.934387D-05  0.000000D+00
    154  0.000000D+00  0.000000D+00  0.000000D+00  0.000000D+00  0.934387D-05
    155  0.000000D+00  0.000000D+00  0.000000D+00  0.000000D+00  0.000000D+00
    156  0.000000D+00  0.000000D+00  0.000000D+00  0.000000D+00  0.000000D+00
    157  0.000000D+00  0.000000D+00  0.000000D+00  0.000000D+00  0.000000D+00
    158  0.000000D+00  0.000000D+00  0.000000D+00  0.000000D+00  0.000000D+00
    159  0.000000D+00  0.000000D+00  0.000000D+00  0.000000D+00  0.000000D+00
    160  0.000000D+00  0.000000D+00  0.000000D+00  0.000000D+00  0.000000D+00
    161  0.000000D+00  0.000000D+00  0.000000D+00  0.000000D+00  0.000000D+00
    162  0.000000D+00  0.228503D-04  0.358675D-04  0.312141D-04  0.000000D+00
    163  0.000000D+00  0.000000D+00  0.000000D+00  0.000000D+00  0.000000D+00
    164  0.000000D+00  0.000000D+00  0.000000D+00  0.000000D+00  0.000000D+00
    165  0.000000D+00  0.000000D+00  0.000000D+00  0.000000D+00  0.000000D+00
    166  0.000000D+00  0.000000D+00  0.000000D+00  0.000000D+00  0.000000D+00
                6             7             8             9            10
      6  0.100000D+01
      7  0.000000D+00  0.100000D+01
      8  0.000000D+00  0.000000D+00  0.100000D+01
      9  0.000000D+00  0.000000D+00  0.000000D+00  0.100000D+01
     10  0.629936D+00  0.000000D+00  0.000000D+00  0.000000D+00  0.100000D+01
     11  0.629936D+00  0.000000D+00  0.000000D+00  0.000000D+00  0.333333D+00
     12  0.629936D+00  0.000000D+00  0.000000D+00  0.000000D+00  0.333333D+00
     13  0.000000D+00  0.000000D+00  0.000000D+00  0.000000D+00  0.000000D+00
     14  0.000000D+00  0.000000D+00  0.000000D+00  0.000000D+00  0.000000D+00
     15  0.000000D+00  0.000000D+00  0.000000D+00  0.000000D+00  0.000000D+00
     16  0.612734D-01  0.109026D+00 -0.636553D-01  0.000000D+00  0.337041D-01
     17  0.345869D+00  0.478331D+00 -0.279277D+00  0.000000D+00  0.256701D+00
     18 -0.215241D+00 -0.768742D-01  0.181072D+00  0.000000D+00 -0.243597D+00
     19  0.125670D+00  0.181072D+00  0.127537D+00  0.000000D+00  0.240428D+00
     20  0.000000D+00  0.000000D+00  0.000000D+00  0.233257D+00  0.000000D+00
     21  0.565028D+00  0.521388D+00 -0.304416D+00  0.000000D+00  0.318129D+00
     22 -0.521388D+00  0.839093D-01  0.280904D+00  0.000000D+00 -0.327135D+00
     23  0.304416D+00  0.280904D+00  0.401020D+00  0.000000D+00  0.283090D+00
     24  0.000000D+00  0.000000D+00  0.000000D+00  0.565028D+00  0.000000D+00
     25  0.318129D+00  0.327135D+00 -0.283090D+00  0.000000D+00  0.249756D+00
     26  0.270163D+00  0.411758D+00 -0.148318D+00  0.000000D+00  0.266313D+00
     27  0.245356D+00  0.373949D+00 -0.218333D+00  0.000000D+00  0.112068D+00
     28 -0.735923D-01 -0.324106D-01 -0.711084D-01  0.000000D+00 -0.275913D+00
     29  0.000000D+00  0.000000D+00  0.000000D+00 -0.136595D+00  0.000000D+00
     30  0.000000D+00  0.000000D+00  0.000000D+00  0.797520D-01  0.000000D+00
     31  0.591106D-02  0.215138D-01 -0.743648D-04  0.000000D+00  0.101134D-04
     32  0.557693D-01  0.158935D+00 -0.549376D-03  0.000000D+00  0.833547D-02
     33 -0.667027D-01 -0.160149D+00  0.675633D-03  0.000000D+00 -0.191979D-01
     34  0.230565D-03  0.675633D-03  0.353095D-01  0.000000D+00  0.764088D-04
     35  0.000000D+00  0.000000D+00  0.000000D+00  0.353118D-01  0.000000D+00
     36  0.167945D+00  0.317243D+00 -0.109659D-02  0.000000D+00  0.741885D-01
     37 -0.317243D+00 -0.431316D+00  0.207141D-02  0.000000D+00 -0.187937D+00
     38  0.109659D-02  0.207141D-02  0.167938D+00  0.000000D+00  0.800083D-03
     39  0.000000D+00  0.000000D+00  0.000000D+00  0.167945D+00  0.000000D+00
     40  0.741885D-01  0.187937D+00 -0.800083D-03  0.000000D+00  0.180342D-01
     41  0.330776D-01  0.103201D+00 -0.206265D-03  0.000000D+00  0.126544D-02
     42  0.330771D-01  0.103199D+00 -0.356719D-03  0.000000D+00  0.126518D-02
     43 -0.246135D-03 -0.637628D-03 -0.376937D-01  0.000000D+00 -0.113855D-03
     44  0.000000D+00  0.000000D+00  0.000000D+00 -0.376963D-01  0.000000D+00
     45  0.000000D+00  0.000000D+00  0.000000D+00  0.130301D-03  0.000000D+00
     46  0.181819D-02  0.661489D-02  0.387437D-02  0.000000D+00  0.000000D+00
     47  0.221262D-01  0.632033D-01  0.370184D-01  0.000000D+00  0.796565D-03
     48 -0.258443D-01 -0.618548D-01 -0.442421D-01  0.000000D+00 -0.182077D-02
     49 -0.151371D-01 -0.442421D-01 -0.122311D-01  0.000000D+00 -0.122830D-02
     50  0.000000D+00  0.000000D+00  0.000000D+00  0.136817D-01  0.000000D+00
     51  0.910692D-01  0.172027D+00  0.100757D+00  0.000000D+00  0.269978D-01
     52 -0.172027D+00 -0.233884D+00 -0.190327D+00  0.000000D+00 -0.683918D-01
     53 -0.100757D+00 -0.190327D+00 -0.204058D-01  0.000000D+00 -0.493350D-01
     54  0.000000D+00  0.000000D+00  0.000000D+00  0.910692D-01  0.000000D+00
     55  0.269978D-01  0.683918D-01  0.493350D-01  0.000000D+00  0.990291D-03
     56  0.171693D-01  0.535675D-01  0.220971D-01  0.000000D+00  0.472710D-03
     57  0.120370D-01  0.375550D-01  0.219961D-01  0.000000D+00  0.694731D-04
     58  0.151773D-01  0.393177D-01  0.140165D-01  0.000000D+00  0.105937D-02
     59  0.000000D+00  0.000000D+00  0.000000D+00 -0.137180D-01  0.000000D+00
     60  0.000000D+00  0.000000D+00  0.000000D+00 -0.803468D-02  0.000000D+00
     61  0.609431D-02  0.108356D-01  0.192411D-01  0.000000D+00  0.280098D-05
     62  0.571185D-01  0.795145D-01  0.141196D+00  0.000000D+00  0.276849D-02
     63 -0.333959D-01 -0.116192D-01 -0.848969D-01  0.000000D+00 -0.207204D-02
     64 -0.593019D-01 -0.848969D-01 -0.114563D+00  0.000000D+00 -0.635997D-02
     65  0.000000D+00  0.000000D+00  0.000000D+00  0.361905D-01  0.000000D+00
     66  0.170628D+00  0.157452D+00  0.279591D+00  0.000000D+00  0.440253D-01
     67 -0.157452D+00  0.253341D-01 -0.258001D+00  0.000000D+00 -0.452727D-01
     68 -0.279591D+00 -0.258001D+00 -0.287511D+00  0.000000D+00 -0.119152D+00
     69  0.000000D+00  0.000000D+00  0.000000D+00  0.170628D+00  0.000000D+00
     70  0.440253D-01  0.452727D-01  0.119152D+00  0.000000D+00  0.854571D-03
     71  0.657103D-01  0.100151D+00  0.139081D+00  0.000000D+00  0.526520D-02
     72  0.339542D-01  0.517507D-01  0.918949D-01  0.000000D+00  0.383435D-03
     73  0.309751D-01  0.136430D-01  0.649288D-01  0.000000D+00  0.287128D-02
     74  0.000000D+00  0.000000D+00  0.000000D+00 -0.189034D-01  0.000000D+00
     75  0.000000D+00  0.000000D+00  0.000000D+00 -0.335671D-01  0.000000D+00
     76  0.573903D-01  0.000000D+00  0.121710D+00  0.000000D+00  0.715466D-03
     77  0.328707D+00  0.000000D+00  0.541962D+00  0.000000D+00  0.740435D-01
     78  0.000000D+00  0.221214D+00  0.000000D+00  0.000000D+00  0.000000D+00
     79 -0.243301D+00  0.000000D+00 -0.196535D+00  0.000000D+00 -0.118459D+00
     80  0.000000D+00  0.000000D+00  0.000000D+00  0.221214D+00  0.000000D+00
     81  0.546165D+00  0.000000D+00  0.600699D+00  0.000000D+00  0.231975D+00
     82  0.000000D+00  0.546165D+00  0.000000D+00  0.000000D+00  0.000000D+00
     83 -0.600699D+00  0.000000D+00 -0.114513D+00  0.000000D+00 -0.421404D+00
     84  0.000000D+00  0.000000D+00  0.000000D+00  0.546165D+00  0.000000D+00
     85  0.231975D+00  0.000000D+00  0.421404D+00  0.000000D+00  0.568145D-01
     86  0.329720D+00  0.000000D+00  0.421224D+00  0.000000D+00  0.127566D+00
     87  0.231975D+00  0.000000D+00  0.421404D+00  0.000000D+00  0.189382D-01
     88  0.000000D+00 -0.153930D+00  0.000000D+00  0.000000D+00  0.000000D+00
     89  0.000000D+00  0.000000D+00  0.000000D+00  0.000000D+00  0.000000D+00
     90  0.000000D+00  0.000000D+00  0.000000D+00 -0.153930D+00  0.000000D+00
     91  0.214721D-03  0.974642D-03 -0.472464D-03  0.000000D+00  0.000000D+00
     92  0.734735D-02  0.204899D-01 -0.993261D-02  0.000000D+00  0.754092D-03
     93  0.378340D+00 -0.447921D+00 -0.254655D+00  0.000000D+00  0.375559D+00
     94  0.706000D+00 -0.506049D+00 -0.287703D+00  0.000000D+00  0.413282D+00
     95  0.722287D-01  0.107322D+00 -0.160485D+00  0.000000D+00  0.591532D-02
     96  0.258387D+00  0.233594D+00 -0.349305D+00  0.000000D+00  0.874707D-01
     97  0.542015D-04  0.297723D-03 -0.561798D-04  0.000000D+00  0.000000D+00
     98  0.139127D-02  0.603383D-02 -0.113857D-02  0.000000D+00  0.155867D-05
     99 -0.233971D-02 -0.945915D-02  0.193956D-02  0.000000D+00 -0.581481D-05
    100  0.441499D-03  0.193956D-02  0.453478D-03  0.000000D+00  0.116856D-05
    101  0.000000D+00  0.000000D+00  0.000000D+00  0.819469D-03  0.000000D+00
    102  0.146828D-01  0.419216D-01 -0.791053D-02  0.000000D+00  0.226851D-02
    103 -0.419216D-01 -0.105010D+00  0.225858D-01  0.000000D+00 -0.952258D-02
    104  0.791053D-02  0.225858D-01  0.104209D-01  0.000000D+00  0.201865D-02
    105  0.000000D+00  0.000000D+00  0.000000D+00  0.146828D-01  0.000000D+00
    106  0.226851D-02  0.952258D-02 -0.201865D-02  0.000000D+00  0.000000D+00
    107  0.650567D-03  0.306793D-02 -0.357157D-03  0.000000D+00  0.000000D+00
    108  0.590830D-03  0.278623D-02 -0.525756D-03  0.000000D+00  0.000000D+00
    109 -0.548323D-03 -0.239372D-02 -0.529815D-03  0.000000D+00  0.000000D+00
    110  0.000000D+00  0.000000D+00  0.000000D+00 -0.101775D-02  0.000000D+00
    111  0.000000D+00  0.000000D+00  0.000000D+00  0.192047D-03  0.000000D+00
    112  0.541864D-05  0.297430D-04  0.170698D-04  0.000000D+00  0.000000D+00
    113  0.225303D-03  0.978781D-03  0.561733D-03  0.000000D+00  0.000000D+00
    114 -0.371534D-03 -0.149822D-02 -0.934527D-03  0.000000D+00  0.000000D+00
    115 -0.213227D-03 -0.934527D-03 -0.406208D-03  0.000000D+00  0.000000D+00
    116  0.000000D+00  0.000000D+00  0.000000D+00  0.130127D-03  0.000000D+00
    117  0.443373D-02  0.126591D-01  0.726516D-02  0.000000D+00  0.313913D-03
    118 -0.126591D-01 -0.317100D-01 -0.207433D-01  0.000000D+00 -0.131773D-02
    119 -0.726516D-02 -0.207433D-01 -0.747103D-02  0.000000D+00 -0.849589D-03
    120  0.000000D+00  0.000000D+00  0.000000D+00  0.443373D-02  0.000000D+00
    121  0.313913D-03  0.131773D-02  0.849589D-03  0.000000D+00  0.000000D+00
    122  0.158223D-03  0.746150D-03  0.334893D-03  0.000000D+00  0.000000D+00
    123  0.817577D-04  0.385553D-03  0.221273D-03  0.000000D+00  0.000000D+00
    124  0.230772D-03  0.100745D-02  0.483738D-03  0.000000D+00  0.000000D+00
    125  0.000000D+00  0.000000D+00  0.000000D+00 -0.140834D-03  0.000000D+00
    126  0.000000D+00  0.000000D+00  0.000000D+00 -0.808260D-04  0.000000D+00
    127  0.240408D-02  0.354786D-02  0.952426D-02  0.000000D+00  0.000000D+00
    128  0.323438D-01  0.292404D-01  0.784960D-01  0.000000D+00  0.297055D-02
    129  0.682767D-01 -0.804231D-01  0.166346D+00  0.000000D+00  0.369095D-02
    130  0.249690D+00 -0.178972D+00  0.370183D+00  0.000000D+00  0.761139D-01
    131  0.000000D+00  0.000000D+00  0.000000D+00  0.000000D+00  0.000000D+00
    132  0.655146D-05  0.377285D-04  0.109837D-04  0.000000D+00  0.000000D+00
    133 -0.139813D-04 -0.771574D-04 -0.235398D-04  0.000000D+00  0.000000D+00
    134 -0.407031D-05 -0.235398D-04 -0.315222D-05  0.000000D+00  0.000000D+00
    135  0.000000D+00  0.000000D+00  0.000000D+00  0.370079D-05  0.000000D+00
    136  0.434540D-03  0.164166D-02  0.477929D-03  0.000000D+00  0.105320D-04
    137 -0.164166D-02 -0.576756D-02 -0.180558D-02  0.000000D+00 -0.610767D-04
    138 -0.477929D-03 -0.180558D-02 -0.911088D-04  0.000000D+00 -0.191323D-04
    139  0.000000D+00  0.000000D+00  0.000000D+00  0.434540D-03  0.000000D+00
    140  0.105320D-04  0.610767D-04  0.191323D-04  0.000000D+00  0.000000D+00
    141  0.250682D-05  0.156424D-04  0.320252D-05  0.000000D+00  0.000000D+00
    142  0.176368D-05  0.110052D-04  0.320389D-05  0.000000D+00  0.000000D+00
    143  0.442134D-05  0.264185D-04  0.401182D-05  0.000000D+00  0.000000D+00
    144  0.000000D+00  0.000000D+00  0.000000D+00 -0.401996D-05  0.000000D+00
    145  0.000000D+00  0.000000D+00  0.000000D+00 -0.117031D-05  0.000000D+00
    146  0.000000D+00  0.144884D-05  0.000000D+00  0.000000D+00  0.000000D+00
    147  0.164700D-04  0.948143D-04  0.000000D+00  0.000000D+00  0.000000D+00
    148 -0.353004D-04 -0.194919D-03  0.000000D+00  0.000000D+00  0.000000D+00
    149  0.000000D+00  0.000000D+00  0.934387D-05  0.000000D+00  0.000000D+00
    150  0.000000D+00  0.000000D+00  0.000000D+00  0.934387D-05  0.000000D+00
    151  0.795644D-03  0.300588D-02  0.000000D+00  0.000000D+00  0.286012D-04
    152 -0.300588D-02 -0.105604D-01  0.000000D+00  0.000000D+00 -0.165863D-03
    153  0.000000D+00  0.000000D+00  0.795644D-03  0.000000D+00  0.000000D+00
    154  0.000000D+00  0.000000D+00  0.000000D+00  0.795644D-03  0.000000D+00
    155  0.286012D-04  0.165863D-03  0.000000D+00  0.000000D+00  0.000000D+00
    156  0.478956D-05  0.298864D-04  0.000000D+00  0.000000D+00  0.000000D+00
    157  0.478956D-05  0.298864D-04  0.000000D+00  0.000000D+00  0.000000D+00
    158  0.000000D+00  0.000000D+00 -0.109168D-04  0.000000D+00  0.000000D+00
    159  0.000000D+00  0.000000D+00  0.000000D+00 -0.109168D-04  0.000000D+00
    160  0.000000D+00  0.000000D+00  0.000000D+00  0.000000D+00  0.000000D+00
    161  0.732672D-05  0.331762D-04  0.288720D-04  0.000000D+00  0.000000D+00
    162  0.919705D-03  0.256482D-02  0.223206D-02  0.000000D+00  0.256089D-04
    163  0.000000D+00  0.000000D+00  0.000000D+00  0.000000D+00  0.000000D+00
    164  0.155555D-04  0.685931D-04  0.230621D-04  0.000000D+00  0.000000D+00
    165  0.000000D+00  0.000000D+00  0.000000D+00  0.000000D+00  0.000000D+00
    166  0.439849D-04  0.193955D-03 -0.179243D-04  0.000000D+00  0.000000D+00
               11            12            13            14            15
     11  0.100000D+01
     12  0.333333D+00  0.100000D+01
     13  0.000000D+00  0.000000D+00  0.100000D+01
     14  0.000000D+00  0.000000D+00  0.000000D+00  0.100000D+01
     15  0.000000D+00  0.000000D+00  0.000000D+00  0.000000D+00  0.100000D+01
     16  0.121023D-01  0.930030D-03 -0.331434D-01  0.000000D+00  0.000000D+00
     17  0.143036D+00  0.842487D-01 -0.174395D+00  0.000000D+00  0.000000D+00
     18 -0.215242D+00 -0.113588D+00  0.216520D+00  0.000000D+00  0.000000D+00
     19  0.274686D-01  0.663188D-01 -0.304093D-01  0.000000D+00  0.000000D+00
     20  0.000000D+00  0.000000D+00  0.000000D+00  0.145661D+00 -0.850453D-01
     21  0.270163D+00  0.245356D+00 -0.735923D-01  0.000000D+00  0.000000D+00
     22 -0.411758D+00 -0.373949D+00  0.324106D-01  0.000000D+00  0.000000D+00
     23  0.148318D+00  0.218333D+00  0.711084D-01  0.000000D+00  0.000000D+00
     24  0.000000D+00  0.000000D+00  0.000000D+00  0.136595D+00 -0.797520D-01
     25  0.266313D+00  0.112068D+00 -0.275913D+00  0.000000D+00  0.000000D+00
     26  0.476439D-01  0.528654D-01 -0.341860D-01  0.000000D+00  0.000000D+00
     27  0.528654D-01  0.667391D-01 -0.908334D-01  0.000000D+00  0.000000D+00
     28 -0.341860D-01 -0.908334D-01  0.762973D-01  0.000000D+00  0.000000D+00
     29  0.000000D+00  0.000000D+00  0.000000D+00 -0.202725D+00  0.157328D+00
     30  0.000000D+00  0.000000D+00  0.000000D+00  0.157328D+00 -0.251179D-01
     31  0.000000D+00  0.000000D+00  0.000000D+00  0.000000D+00  0.000000D+00
     32  0.809310D-03  0.809220D-03 -0.450599D-04  0.000000D+00  0.000000D+00
     33 -0.213074D-02 -0.213050D-02  0.110886D-03  0.000000D+00  0.000000D+00
     34 -0.268402D-05  0.736430D-05  0.251732D-02  0.000000D+00  0.000000D+00
     35  0.000000D+00  0.000000D+00  0.000000D+00  0.251773D-02 -0.870281D-05
     36  0.330776D-01  0.330771D-01 -0.246135D-03  0.000000D+00  0.000000D+00
     37 -0.103201D+00 -0.103199D+00  0.637628D-03  0.000000D+00  0.000000D+00
     38  0.206265D-03  0.356719D-03  0.376937D-01  0.000000D+00  0.000000D+00
     39  0.000000D+00  0.000000D+00  0.000000D+00  0.376963D-01 -0.130301D-03
     40  0.126544D-02  0.126518D-02 -0.113855D-03  0.000000D+00  0.000000D+00
     41  0.211784D-03  0.706183D-04  0.715053D-05  0.000000D+00  0.000000D+00
     42  0.706183D-04  0.211812D-03 -0.715197D-05  0.000000D+00  0.000000D+00
     43  0.715053D-05 -0.715197D-05 -0.337124D-02  0.000000D+00  0.000000D+00
     44  0.000000D+00  0.000000D+00  0.000000D+00 -0.337193D-02  0.123876D-04
     45  0.000000D+00  0.000000D+00  0.000000D+00  0.123876D-04  0.211769D-03
     46  0.000000D+00  0.000000D+00  0.000000D+00  0.000000D+00  0.000000D+00
     47  0.323983D-03  0.772084D-04  0.729765D-03  0.000000D+00  0.000000D+00
     48 -0.852785D-03 -0.203006D-03 -0.178135D-02  0.000000D+00  0.000000D+00
     49 -0.337616D-03 -0.118902D-03 -0.886117D-03  0.000000D+00  0.000000D+00
     50  0.000000D+00  0.000000D+00  0.000000D+00  0.239333D-03  0.140178D-03
     51  0.171693D-01  0.120370D-01  0.151773D-01  0.000000D+00  0.000000D+00
     52 -0.535675D-01 -0.375550D-01 -0.393177D-01  0.000000D+00  0.000000D+00
     53 -0.220971D-01 -0.219961D-01 -0.140165D-01  0.000000D+00  0.000000D+00
     54  0.000000D+00  0.000000D+00  0.000000D+00  0.137180D-01  0.803468D-02
     55  0.472710D-03  0.694731D-04  0.105937D-02  0.000000D+00  0.000000D+00
     56  0.972360D-04  0.263797D-04  0.319698D-03  0.000000D+00  0.000000D+00
     57  0.263797D-04  0.116309D-04  0.665453D-04  0.000000D+00  0.000000D+00
     58  0.319698D-03  0.665453D-04  0.889537D-03  0.000000D+00  0.000000D+00
     59  0.000000D+00  0.000000D+00  0.000000D+00 -0.185157D-03 -0.115260D-03
     60  0.000000D+00  0.000000D+00  0.000000D+00 -0.115260D-03 -0.558772D-04
     61  0.862345D-05  0.000000D+00  0.831689D-05  0.000000D+00  0.000000D+00
     62  0.687791D-02  0.859963D-03  0.586994D-02  0.000000D+00  0.000000D+00
     63 -0.891186D-02 -0.110612D-02 -0.529231D-02  0.000000D+00  0.000000D+00
     64 -0.131444D-01 -0.196416D-02 -0.122126D-01  0.000000D+00  0.000000D+00
     65  0.000000D+00  0.000000D+00  0.000000D+00  0.130733D-02  0.232146D-02
     66  0.657103D-01  0.339542D-01  0.309751D-01  0.000000D+00  0.000000D+00
     67 -0.100151D+00 -0.517507D-01 -0.136430D-01  0.000000D+00  0.000000D+00
     68 -0.139081D+00 -0.918949D-01 -0.649288D-01  0.000000D+00  0.000000D+00
     69  0.000000D+00  0.000000D+00  0.000000D+00  0.189034D-01  0.335671D-01
     70  0.526520D-02  0.383435D-03  0.287128D-02  0.000000D+00  0.000000D+00
     71  0.106278D-01  0.104516D-02  0.110889D-01  0.000000D+00  0.000000D+00
     72  0.104516D-02  0.228339D-03  0.945213D-03  0.000000D+00  0.000000D+00
     73  0.110889D-01  0.945213D-03  0.813739D-02  0.000000D+00  0.000000D+00
     74  0.000000D+00  0.000000D+00  0.000000D+00 -0.693627D-03 -0.163716D-02
     75  0.000000D+00  0.000000D+00  0.000000D+00 -0.163716D-02 -0.267880D-02
     76  0.361643D-01  0.715466D-03  0.000000D+00  0.000000D+00  0.000000D+00
     77  0.291289D+00  0.740435D-01  0.000000D+00  0.000000D+00  0.000000D+00
     78  0.000000D+00  0.000000D+00  0.150794D+00  0.000000D+00  0.000000D+00
     79 -0.380023D+00 -0.118459D+00  0.000000D+00  0.000000D+00  0.000000D+00
     80  0.000000D+00  0.000000D+00  0.000000D+00  0.000000D+00  0.150794D+00
     81  0.329720D+00  0.231975D+00  0.000000D+00  0.000000D+00  0.000000D+00
     82  0.000000D+00  0.000000D+00  0.153930D+00  0.000000D+00  0.000000D+00
     83 -0.421224D+00 -0.421404D+00  0.000000D+00  0.000000D+00  0.000000D+00
     84  0.000000D+00  0.000000D+00  0.000000D+00  0.000000D+00  0.153930D+00
     85  0.127566D+00  0.189382D-01  0.000000D+00  0.000000D+00  0.000000D+00
     86  0.462641D+00  0.127566D+00  0.000000D+00  0.000000D+00  0.000000D+00
     87  0.127566D+00  0.568145D-01  0.000000D+00  0.000000D+00  0.000000D+00
     88  0.000000D+00  0.000000D+00 -0.269069D+00  0.000000D+00  0.000000D+00
     89  0.000000D+00  0.000000D+00  0.000000D+00  0.568145D-01  0.000000D+00
     90  0.000000D+00  0.000000D+00  0.000000D+00  0.000000D+00 -0.269069D+00
     91  0.000000D+00  0.000000D+00  0.000000D+00  0.000000D+00  0.000000D+00
     92  0.336965D-03  0.208836D-03 -0.457809D-03  0.000000D+00  0.000000D+00
     93  0.201721D+00  0.118698D+00  0.252936D+00  0.000000D+00  0.000000D+00
     94  0.372135D+00  0.352484D+00  0.598691D-01  0.000000D+00  0.000000D+00
     95  0.113553D-01  0.151428D-02 -0.113988D-01  0.000000D+00  0.000000D+00
     96  0.110750D+00  0.686376D-01 -0.487782D-01  0.000000D+00  0.000000D+00
     97  0.000000D+00  0.000000D+00  0.000000D+00  0.000000D+00  0.000000D+00
     98  0.000000D+00  0.000000D+00  0.000000D+00  0.000000D+00  0.000000D+00
     99  0.000000D+00  0.000000D+00  0.187146D-05  0.000000D+00  0.000000D+00
    100  0.000000D+00  0.000000D+00  0.000000D+00  0.000000D+00  0.000000D+00
    101  0.000000D+00  0.000000D+00  0.000000D+00  0.000000D+00  0.000000D+00
    102  0.650567D-03  0.590830D-03 -0.548323D-03  0.000000D+00  0.000000D+00
    103 -0.306793D-02 -0.278623D-02  0.239372D-02  0.000000D+00  0.000000D+00
    104  0.357157D-03  0.525756D-03  0.529815D-03  0.000000D+00  0.000000D+00
    105  0.000000D+00  0.000000D+00  0.000000D+00  0.101775D-02 -0.192047D-03
    106  0.000000D+00  0.000000D+00  0.000000D+00  0.000000D+00  0.000000D+00
    107  0.000000D+00  0.000000D+00  0.000000D+00  0.000000D+00  0.000000D+00
    108  0.000000D+00  0.000000D+00  0.000000D+00  0.000000D+00  0.000000D+00
    109  0.000000D+00  0.000000D+00  0.000000D+00  0.000000D+00  0.000000D+00
    110  0.000000D+00  0.000000D+00  0.000000D+00  0.000000D+00  0.000000D+00
    111  0.000000D+00  0.000000D+00  0.000000D+00  0.000000D+00  0.000000D+00
    112  0.000000D+00  0.000000D+00  0.000000D+00  0.000000D+00  0.000000D+00
    113  0.000000D+00  0.000000D+00  0.000000D+00  0.000000D+00  0.000000D+00
    114  0.000000D+00  0.000000D+00  0.000000D+00  0.000000D+00  0.000000D+00
    115  0.000000D+00  0.000000D+00  0.000000D+00  0.000000D+00  0.000000D+00
    116  0.000000D+00  0.000000D+00  0.000000D+00  0.000000D+00  0.000000D+00
    117  0.158223D-03  0.817577D-04  0.230772D-03  0.000000D+00  0.000000D+00
    118 -0.746150D-03 -0.385553D-03 -0.100745D-02  0.000000D+00  0.000000D+00
    119 -0.334893D-03 -0.221273D-03 -0.483738D-03  0.000000D+00  0.000000D+00
    120  0.000000D+00  0.000000D+00  0.000000D+00  0.140834D-03  0.808260D-04
    121  0.000000D+00  0.000000D+00  0.000000D+00  0.000000D+00  0.000000D+00
    122  0.000000D+00  0.000000D+00  0.000000D+00  0.000000D+00  0.000000D+00
    123  0.000000D+00  0.000000D+00  0.000000D+00  0.000000D+00  0.000000D+00
    124  0.000000D+00  0.000000D+00  0.000000D+00  0.000000D+00  0.000000D+00
    125  0.000000D+00  0.000000D+00  0.000000D+00  0.000000D+00  0.000000D+00
    126  0.000000D+00  0.000000D+00  0.000000D+00  0.000000D+00  0.000000D+00
    127  0.422773D-05  0.000000D+00  0.260258D-05  0.000000D+00  0.000000D+00
    128  0.694016D-02  0.233097D-02  0.297386D-02  0.000000D+00  0.000000D+00
    129  0.115085D-01  0.130627D-02 -0.854326D-02  0.000000D+00  0.000000D+00
    130  0.112820D+00  0.649169D-01 -0.401138D-01  0.000000D+00  0.000000D+00
    131  0.000000D+00  0.000000D+00  0.000000D+00  0.000000D+00  0.000000D+00
    132  0.000000D+00  0.000000D+00  0.000000D+00  0.000000D+00  0.000000D+00
    133  0.000000D+00  0.000000D+00  0.000000D+00  0.000000D+00  0.000000D+00
    134  0.000000D+00  0.000000D+00  0.000000D+00  0.000000D+00  0.000000D+00
    135  0.000000D+00  0.000000D+00  0.000000D+00  0.000000D+00  0.000000D+00
    136  0.250682D-05  0.176368D-05  0.442134D-05  0.000000D+00  0.000000D+00
    137 -0.156424D-04 -0.110052D-04 -0.264185D-04  0.000000D+00  0.000000D+00
    138 -0.320252D-05 -0.320389D-05 -0.401182D-05  0.000000D+00  0.000000D+00
    139  0.000000D+00  0.000000D+00  0.000000D+00  0.401996D-05  0.117031D-05
    140  0.000000D+00  0.000000D+00  0.000000D+00  0.000000D+00  0.000000D+00
    141  0.000000D+00  0.000000D+00  0.000000D+00  0.000000D+00  0.000000D+00
    142  0.000000D+00  0.000000D+00  0.000000D+00  0.000000D+00  0.000000D+00
    143  0.000000D+00  0.000000D+00  0.000000D+00  0.000000D+00  0.000000D+00
    144  0.000000D+00  0.000000D+00  0.000000D+00  0.000000D+00  0.000000D+00
    145  0.000000D+00  0.000000D+00  0.000000D+00  0.000000D+00  0.000000D+00
    146  0.000000D+00  0.000000D+00  0.000000D+00  0.000000D+00  0.000000D+00
    147  0.000000D+00  0.000000D+00  0.000000D+00  0.000000D+00  0.000000D+00
    148  0.000000D+00  0.000000D+00  0.000000D+00  0.000000D+00  0.000000D+00
    149  0.000000D+00  0.000000D+00  0.000000D+00  0.000000D+00  0.000000D+00
    150  0.000000D+00  0.000000D+00  0.000000D+00  0.000000D+00  0.000000D+00
    151  0.478956D-05  0.478956D-05  0.000000D+00  0.000000D+00  0.000000D+00
    152 -0.298864D-04 -0.298864D-04  0.000000D+00  0.000000D+00  0.000000D+00
    153  0.000000D+00  0.000000D+00  0.109168D-04  0.000000D+00  0.000000D+00
    154  0.000000D+00  0.000000D+00  0.000000D+00  0.109168D-04  0.000000D+00
    155  0.000000D+00  0.000000D+00  0.000000D+00  0.000000D+00  0.000000D+00
    156  0.000000D+00  0.000000D+00  0.000000D+00  0.000000D+00  0.000000D+00
    157  0.000000D+00  0.000000D+00  0.000000D+00  0.000000D+00  0.000000D+00
    158  0.000000D+00  0.000000D+00  0.000000D+00  0.000000D+00  0.000000D+00
    159  0.000000D+00  0.000000D+00  0.000000D+00  0.000000D+00  0.000000D+00
    160  0.000000D+00  0.000000D+00  0.000000D+00  0.000000D+00  0.000000D+00
    161  0.000000D+00  0.000000D+00  0.000000D+00  0.000000D+00  0.000000D+00
    162  0.211159D-04  0.709210D-05  0.279111D-04  0.000000D+00  0.000000D+00
    163  0.000000D+00  0.000000D+00  0.000000D+00  0.000000D+00  0.000000D+00
    164  0.000000D+00  0.000000D+00  0.000000D+00  0.000000D+00  0.000000D+00
    165  0.000000D+00  0.000000D+00  0.000000D+00  0.000000D+00  0.000000D+00
    166  0.000000D+00  0.000000D+00  0.000000D+00  0.000000D+00  0.000000D+00
               16            17            18            19            20
     16  0.100000D+01
     17  0.219059D+00  0.100000D+01
     18  0.000000D+00  0.000000D+00  0.100000D+01
     19  0.000000D+00  0.000000D+00  0.000000D+00  0.100000D+01
     20  0.000000D+00  0.000000D+00  0.000000D+00  0.000000D+00  0.100000D+01
     21  0.184261D+00  0.812273D+00  0.000000D+00  0.000000D+00  0.000000D+00
     22  0.000000D+00  0.000000D+00  0.569754D+00  0.000000D+00  0.000000D+00
     23  0.000000D+00  0.000000D+00  0.000000D+00  0.569754D+00  0.000000D+00
     24  0.000000D+00  0.000000D+00  0.000000D+00  0.000000D+00  0.569754D+00
     25  0.791027D-01  0.710235D+00  0.000000D+00  0.000000D+00  0.000000D+00
     26  0.791027D-01  0.710235D+00  0.000000D+00  0.000000D+00  0.000000D+00
     27  0.791027D-01  0.710235D+00  0.000000D+00  0.000000D+00  0.000000D+00
     28  0.000000D+00  0.000000D+00  0.000000D+00  0.000000D+00  0.000000D+00
     29  0.000000D+00  0.000000D+00  0.000000D+00  0.000000D+00  0.000000D+00
     30  0.000000D+00  0.000000D+00  0.000000D+00  0.000000D+00  0.000000D+00
     31  0.146694D-05  0.135830D-01  0.273961D-01  0.150912D-01  0.000000D+00
     32  0.135830D-01  0.167970D+00  0.212679D+00  0.117154D+00  0.000000D+00
     33 -0.273961D-01 -0.212679D+00 -0.212047D+00 -0.167843D+00  0.000000D+00
     34 -0.150912D-01 -0.117154D+00 -0.167843D+00  0.193349D-03  0.000000D+00
     35  0.000000D+00  0.000000D+00  0.000000D+00  0.000000D+00  0.926498D-01
     36  0.569962D-01  0.326951D+00  0.212548D+00  0.117082D+00  0.000000D+00
     37 -0.106186D+00 -0.473573D+00 -0.100607D+00 -0.176598D+00  0.000000D+00
     38 -0.584928D-01 -0.260868D+00 -0.176598D+00  0.122704D+00  0.000000D+00
     39  0.000000D+00  0.000000D+00  0.000000D+00  0.000000D+00  0.219983D+00
     40  0.272799D-01  0.238580D+00  0.242743D+00  0.216739D+00  0.000000D+00
     41  0.876255D-02  0.123274D+00  0.190868D+00  0.221158D-01  0.000000D+00
     42  0.695994D-03  0.730436D-01  0.102613D+00  0.565247D-01  0.000000D+00
     43  0.253638D-01  0.157939D+00  0.205599D+00  0.223345D-01  0.000000D+00
     44  0.000000D+00  0.000000D+00  0.000000D+00  0.000000D+00 -0.130527D+00
     45  0.000000D+00  0.000000D+00  0.000000D+00  0.000000D+00 -0.719009D-01
     46  0.000000D+00  0.139129D-04  0.274570D-04  0.467507D-04  0.000000D+00
     47  0.139129D-04  0.365411D-02  0.418031D-02  0.711775D-02  0.000000D+00
     48 -0.274570D-04 -0.418031D-02 -0.326545D-02 -0.827685D-02  0.000000D+00
     49 -0.467507D-04 -0.711775D-02 -0.827685D-02 -0.124973D-01  0.000000D+00
     50  0.000000D+00  0.000000D+00  0.000000D+00  0.000000D+00  0.159561D-02
     51  0.551602D-02  0.528289D-01  0.322704D-01  0.549463D-01  0.000000D+00
     52 -0.102686D-01 -0.770205D-01 -0.149617D-01 -0.823433D-01  0.000000D+00
     53 -0.174842D-01 -0.131142D+00 -0.823433D-01 -0.106805D+00  0.000000D+00
     54  0.000000D+00  0.000000D+00  0.000000D+00  0.000000D+00  0.333992D-01
     55  0.205458D-05  0.242104D-02  0.198158D-02  0.557908D-02  0.000000D+00
     56  0.583241D-05  0.567992D-02  0.769652D-02  0.108997D-01  0.000000D+00
     57  0.000000D+00  0.705052D-03  0.949323D-03  0.161640D-02  0.000000D+00
     58  0.586655D-05  0.506067D-02  0.495391D-02  0.105649D-01  0.000000D+00
     59  0.000000D+00  0.000000D+00  0.000000D+00  0.000000D+00 -0.112156D-02
     60  0.000000D+00  0.000000D+00  0.000000D+00  0.000000D+00 -0.190966D-02
     61  0.000000D+00  0.000000D+00  0.000000D+00  0.279108D-05  0.000000D+00
     62  0.000000D+00  0.622405D-03  0.000000D+00  0.159190D-02  0.000000D+00
     63  0.000000D+00  0.000000D+00  0.266704D-03  0.000000D+00  0.000000D+00
     64 -0.279108D-05 -0.159190D-02  0.000000D+00 -0.383009D-02  0.000000D+00
     65  0.000000D+00  0.000000D+00  0.000000D+00  0.000000D+00  0.266704D-03
     66  0.191036D-02  0.230022D-01  0.000000D+00  0.309975D-01  0.000000D+00
     67  0.000000D+00  0.000000D+00  0.142363D-01  0.000000D+00  0.000000D+00
     68 -0.801151D-02 -0.757305D-01  0.000000D+00 -0.902042D-01  0.000000D+00
     69  0.000000D+00  0.000000D+00  0.000000D+00  0.000000D+00  0.142363D-01
     70  0.000000D+00  0.852077D-04  0.000000D+00  0.258250D-03  0.000000D+00
     71  0.000000D+00  0.113998D-02  0.000000D+00  0.310842D-02  0.000000D+00
     72  0.000000D+00  0.852077D-04  0.000000D+00  0.258250D-03  0.000000D+00
     73  0.000000D+00  0.000000D+00 -0.304474D-03  0.000000D+00  0.000000D+00
     74  0.000000D+00  0.000000D+00  0.000000D+00  0.000000D+00  0.000000D+00
     75  0.000000D+00  0.000000D+00  0.000000D+00  0.000000D+00 -0.304474D-03
     76  0.000000D+00  0.186254D-04 -0.351263D-04  0.623759D-04  0.000000D+00
     77  0.186254D-04  0.431408D-02 -0.471926D-02  0.838028D-02  0.000000D+00
     78  0.351263D-04  0.471926D-02 -0.336634D-02  0.933277D-02  0.000000D+00
     79 -0.623759D-04 -0.838028D-02  0.933277D-02 -0.146835D-01  0.000000D+00
     80  0.000000D+00  0.000000D+00  0.000000D+00  0.000000D+00  0.188931D-02
     81  0.609431D-02  0.571185D-01 -0.333954D-01  0.593022D-01  0.000000D+00
     82  0.108355D-01  0.795132D-01 -0.116176D-01  0.848959D-01  0.000000D+00
     83 -0.192412D-01 -0.141196D+00  0.848959D-01 -0.114564D+00  0.000000D+00
     84  0.000000D+00  0.000000D+00  0.000000D+00  0.000000D+00  0.361906D-01
     85  0.280090D-05  0.276843D-02 -0.207193D-02  0.635986D-02  0.000000D+00
     86  0.862356D-05  0.687798D-02 -0.891180D-02  0.131446D-01  0.000000D+00
     87  0.000000D+00  0.859964D-03 -0.110610D-02  0.196417D-02  0.000000D+00
     88 -0.831681D-05 -0.586988D-02  0.529208D-02 -0.122126D-01  0.000000D+00
     89  0.000000D+00  0.000000D+00  0.000000D+00  0.000000D+00  0.130731D-02
     90  0.000000D+00  0.000000D+00  0.000000D+00  0.000000D+00 -0.232148D-02
     91  0.000000D+00  0.403934D-03  0.990072D-03 -0.433039D-03  0.000000D+00
     92  0.297065D-02  0.317865D-01  0.370478D-01 -0.162040D-01  0.000000D+00
     93  0.402683D-04  0.761603D-02 -0.163912D-01  0.120608D-02  0.000000D+00
     94  0.140092D-01  0.108238D+00 -0.111981D+00  0.823972D-02  0.000000D+00
     95  0.330719D-01  0.275136D+00  0.934088D-03 -0.370806D+00  0.000000D+00
     96  0.924591D-01  0.477179D+00  0.669565D-03 -0.265798D+00  0.000000D+00
     97  0.000000D+00  0.106733D-04  0.421042D-04  0.000000D+00  0.000000D+00
     98  0.106733D-04  0.314190D-02  0.718126D-02  0.000000D+00  0.000000D+00
     99 -0.421042D-04 -0.718126D-02 -0.152939D-01  0.000000D+00  0.000000D+00
    100  0.000000D+00  0.000000D+00  0.000000D+00  0.136862D-02  0.000000D+00
    101  0.000000D+00  0.000000D+00  0.000000D+00  0.000000D+00  0.136862D-02
    102  0.503803D-02  0.492084D-01  0.599989D-01  0.000000D+00  0.000000D+00
    103 -0.187569D-01 -0.143511D+00 -0.148741D+00  0.000000D+00  0.000000D+00
    104  0.000000D+00  0.000000D+00  0.000000D+00  0.310491D-01  0.000000D+00
    105  0.000000D+00  0.000000D+00  0.000000D+00  0.000000D+00  0.310491D-01
    106  0.558364D-05  0.631972D-02  0.149525D-01  0.000000D+00  0.000000D+00
    107  0.000000D+00  0.588564D-03  0.158465D-02  0.000000D+00  0.000000D+00
    108  0.000000D+00  0.588564D-03  0.158465D-02  0.000000D+00  0.000000D+00
    109  0.000000D+00  0.000000D+00  0.000000D+00 -0.187154D-02  0.000000D+00
    110  0.000000D+00  0.000000D+00  0.000000D+00  0.000000D+00 -0.187154D-02
    111  0.000000D+00  0.000000D+00  0.000000D+00  0.000000D+00  0.000000D+00
    112  0.000000D+00  0.000000D+00  0.000000D+00  0.000000D+00  0.000000D+00
    113  0.000000D+00  0.151243D-05  0.341745D-05  0.385068D-05  0.000000D+00
    114  0.000000D+00 -0.341745D-05 -0.708263D-05 -0.870285D-05  0.000000D+00
    115  0.000000D+00 -0.385068D-05 -0.870285D-05 -0.916501D-05  0.000000D+00
    116  0.000000D+00  0.000000D+00  0.000000D+00  0.000000D+00  0.000000D+00
    117  0.525094D-04  0.135686D-02  0.154388D-02  0.173960D-02  0.000000D+00
    118 -0.195210D-03 -0.398289D-02 -0.379133D-02 -0.517219D-02  0.000000D+00
    119 -0.219957D-03 -0.448780D-02 -0.517219D-02 -0.502892D-02  0.000000D+00
    120  0.000000D+00  0.000000D+00  0.000000D+00  0.000000D+00  0.798944D-03
    121  0.000000D+00  0.000000D+00  0.165771D-05  0.213841D-05  0.000000D+00
    122  0.000000D+00  0.000000D+00  0.236191D-05  0.239078D-05  0.000000D+00
    123  0.000000D+00  0.000000D+00  0.000000D+00  0.000000D+00  0.000000D+00
    124  0.000000D+00  0.124930D-05  0.312512D-05  0.357735D-05  0.000000D+00
    125  0.000000D+00  0.000000D+00  0.000000D+00  0.000000D+00  0.000000D+00
    126  0.000000D+00  0.000000D+00  0.000000D+00  0.000000D+00  0.000000D+00
    127  0.000000D+00  0.000000D+00  0.000000D+00  0.000000D+00  0.000000D+00
    128  0.393536D-04  0.102442D-02  0.123832D-05  0.175934D-02  0.000000D+00
    129  0.000000D+00  0.490651D-05 -0.102721D-04  0.127498D-04  0.000000D+00
    130  0.288606D-03  0.500146D-02 -0.481623D-02  0.597792D-02  0.000000D+00
    131  0.000000D+00  0.000000D+00  0.000000D+00  0.000000D+00  0.000000D+00
    132  0.000000D+00  0.000000D+00  0.000000D+00  0.000000D+00  0.000000D+00
    133  0.000000D+00  0.000000D+00  0.000000D+00  0.000000D+00  0.000000D+00
    134  0.000000D+00  0.000000D+00  0.000000D+00  0.000000D+00  0.000000D+00
    135  0.000000D+00  0.000000D+00  0.000000D+00  0.000000D+00  0.000000D+00
    136  0.541863D-05  0.225303D-03  0.371533D-03  0.213227D-03  0.000000D+00
    137 -0.297429D-04 -0.978779D-03 -0.149822D-02 -0.934526D-03  0.000000D+00
    138 -0.170698D-04 -0.561732D-03 -0.934526D-03 -0.406208D-03  0.000000D+00
    139  0.000000D+00  0.000000D+00  0.000000D+00  0.000000D+00  0.130126D-03
    140  0.000000D+00  0.000000D+00  0.000000D+00  0.000000D+00  0.000000D+00
    141  0.000000D+00  0.000000D+00  0.000000D+00  0.000000D+00  0.000000D+00
    142  0.000000D+00  0.000000D+00  0.000000D+00  0.000000D+00  0.000000D+00
    143  0.000000D+00  0.000000D+00  0.000000D+00  0.000000D+00  0.000000D+00
    144  0.000000D+00  0.000000D+00  0.000000D+00  0.000000D+00  0.000000D+00
    145  0.000000D+00  0.000000D+00  0.000000D+00  0.000000D+00  0.000000D+00
    146  0.000000D+00  0.000000D+00  0.000000D+00  0.000000D+00  0.000000D+00
    147  0.000000D+00  0.159492D-05  0.532476D-05  0.100477D-05  0.000000D+00
    148  0.000000D+00 -0.532476D-05 -0.171052D-04 -0.335528D-05  0.000000D+00
    149  0.000000D+00 -0.100477D-05 -0.335528D-05  0.000000D+00  0.000000D+00
    150  0.000000D+00  0.000000D+00  0.000000D+00  0.000000D+00  0.000000D+00
    151  0.541991D-04  0.139122D-02  0.233964D-02  0.441484D-03  0.000000D+00
    152 -0.297711D-03 -0.603364D-02 -0.945889D-02 -0.193950D-02  0.000000D+00
    153 -0.561774D-04 -0.113853D-02 -0.193950D-02  0.453462D-03  0.000000D+00
    154  0.000000D+00  0.000000D+00  0.000000D+00  0.000000D+00  0.819441D-03
    155  0.000000D+00  0.155855D-05  0.581436D-05  0.116847D-05  0.000000D+00
    156  0.000000D+00  0.000000D+00  0.000000D+00  0.000000D+00  0.000000D+00
    157  0.000000D+00  0.000000D+00  0.000000D+00  0.000000D+00  0.000000D+00
    158  0.000000D+00  0.000000D+00  0.187131D-05  0.000000D+00  0.000000D+00
    159  0.000000D+00  0.000000D+00  0.000000D+00  0.000000D+00  0.000000D+00
    160  0.000000D+00  0.000000D+00  0.000000D+00  0.000000D+00  0.000000D+00
    161  0.000000D+00  0.000000D+00  0.000000D+00  0.000000D+00  0.000000D+00
    162  0.127430D-05  0.663088D-04  0.708985D-04  0.110985D-03  0.000000D+00
    163  0.000000D+00  0.000000D+00  0.000000D+00  0.000000D+00  0.000000D+00
    164  0.000000D+00  0.291371D-05  0.569726D-05  0.326344D-05  0.000000D+00
    165  0.000000D+00  0.000000D+00  0.000000D+00  0.000000D+00  0.000000D+00
    166  0.123309D-05  0.645892D-04  0.128362D-03  0.435888D-05  0.000000D+00
               21            22            23            24            25
     21  0.100000D+01
     22  0.000000D+00  0.100000D+01
     23  0.000000D+00  0.000000D+00  0.100000D+01
     24  0.000000D+00  0.000000D+00  0.000000D+00  0.100000D+01
     25  0.629936D+00  0.000000D+00  0.000000D+00  0.000000D+00  0.100000D+01
     26  0.629936D+00  0.000000D+00  0.000000D+00  0.000000D+00  0.333333D+00
     27  0.629936D+00  0.000000D+00  0.000000D+00  0.000000D+00  0.333333D+00
     28  0.000000D+00  0.000000D+00  0.000000D+00  0.000000D+00  0.000000D+00
     29  0.000000D+00  0.000000D+00  0.000000D+00  0.000000D+00  0.000000D+00
     30  0.000000D+00  0.000000D+00  0.000000D+00  0.000000D+00  0.000000D+00
     31  0.569962D-01  0.106186D+00  0.584928D-01  0.000000D+00  0.272799D-01
     32  0.326951D+00  0.473573D+00  0.260868D+00  0.000000D+00  0.238580D+00
     33 -0.212548D+00 -0.100607D+00 -0.176598D+00  0.000000D+00 -0.242743D+00
     34 -0.117082D+00 -0.176598D+00  0.122704D+00  0.000000D+00 -0.216739D+00
     35  0.000000D+00  0.000000D+00  0.000000D+00  0.219983D+00  0.000000D+00
     36  0.544217D+00  0.525823D+00  0.289650D+00  0.000000D+00  0.305599D+00
     37 -0.525823D+00  0.361674D-01 -0.279860D+00  0.000000D+00 -0.332465D+00
     38 -0.289650D+00 -0.279860D+00  0.390056D+00  0.000000D+00 -0.268645D+00
     39  0.000000D+00  0.000000D+00  0.000000D+00  0.544217D+00  0.000000D+00
     40  0.305599D+00  0.332465D+00  0.268645D+00  0.000000D+00  0.255870D+00
     41  0.253365D+00  0.404331D+00  0.137221D+00  0.000000D+00  0.236765D+00
     42  0.230610D+00  0.368019D+00  0.202724D+00  0.000000D+00  0.101043D+00
     43  0.715475D-01  0.401284D-01 -0.715334D-01  0.000000D+00  0.269471D+00
     44  0.000000D+00  0.000000D+00  0.000000D+00 -0.134429D+00  0.000000D+00
     45  0.000000D+00  0.000000D+00  0.000000D+00 -0.740504D-01  0.000000D+00
     46  0.551602D-02  0.102686D-01  0.174842D-01  0.000000D+00  0.205458D-05
     47  0.528289D-01  0.770205D-01  0.131142D+00  0.000000D+00  0.242104D-02
     48 -0.322704D-01 -0.149617D-01 -0.823433D-01  0.000000D+00 -0.198158D-02
     49 -0.549463D-01 -0.823433D-01 -0.106805D+00  0.000000D+00 -0.557908D-02
     50  0.000000D+00  0.000000D+00  0.000000D+00  0.333992D-01  0.000000D+00
     51  0.162023D+00  0.156547D+00  0.266551D+00  0.000000D+00  0.413097D-01
     52 -0.156547D+00  0.107667D-01 -0.257542D+00  0.000000D+00 -0.449414D-01
     53 -0.266551D+00 -0.257542D+00 -0.276490D+00  0.000000D+00 -0.112248D+00
     54  0.000000D+00  0.000000D+00  0.000000D+00  0.162023D+00  0.000000D+00
     55  0.413097D-01  0.449414D-01  0.112248D+00  0.000000D+00  0.818367D-03
     56  0.605608D-01  0.966460D-01  0.128831D+00  0.000000D+00  0.447057D-02
     57  0.311729D-01  0.497473D-01  0.847039D-01  0.000000D+00  0.323171D-03
     58  0.298948D-01  0.167672D-01  0.630594D-01  0.000000D+00  0.266404D-02
     59  0.000000D+00  0.000000D+00  0.000000D+00 -0.181716D-01  0.000000D+00
     60  0.000000D+00  0.000000D+00  0.000000D+00 -0.309404D-01  0.000000D+00
     61  0.191036D-02  0.000000D+00  0.801151D-02  0.000000D+00  0.000000D+00
     62  0.230022D-01  0.000000D+00  0.757305D-01  0.000000D+00  0.852077D-04
     63  0.000000D+00  0.142363D-01  0.000000D+00  0.000000D+00  0.000000D+00
     64 -0.309975D-01  0.000000D+00 -0.902042D-01  0.000000D+00 -0.258250D-03
     65  0.000000D+00  0.000000D+00  0.000000D+00  0.142363D-01  0.000000D+00
     66  0.934379D-01  0.145053D-05  0.203448D+00  0.000000D+00  0.125585D-01
     67 -0.145053D-05  0.934379D-01 -0.315834D-05  0.000000D+00  0.000000D+00
     68 -0.203448D+00 -0.315834D-05 -0.349543D+00  0.000000D+00 -0.451640D-01
     69  0.000000D+00  0.000000D+00  0.000000D+00  0.934379D-01  0.000000D+00
     70  0.125585D-01  0.000000D+00  0.451640D-01  0.000000D+00  0.131368D-04
     71  0.332974D-01  0.000000D+00  0.100698D+00  0.000000D+00  0.102818D-03
     72  0.125585D-01  0.000000D+00  0.451640D-01  0.000000D+00  0.437893D-05
     73  0.000000D+00 -0.164974D-01  0.000000D+00  0.000000D+00  0.000000D+00
     74  0.000000D+00  0.000000D+00  0.000000D+00  0.000000D+00  0.000000D+00
     75  0.000000D+00  0.000000D+00  0.000000D+00 -0.164974D-01  0.000000D+00
     76  0.609431D-02 -0.108355D-01  0.192412D-01  0.000000D+00  0.280090D-05
     77  0.571185D-01 -0.795132D-01  0.141196D+00  0.000000D+00  0.276843D-02
     78  0.333954D-01 -0.116176D-01  0.848959D-01  0.000000D+00  0.207193D-02
     79 -0.593022D-01  0.848959D-01 -0.114564D+00  0.000000D+00 -0.635986D-02
     80  0.000000D+00  0.000000D+00  0.000000D+00  0.361906D-01  0.000000D+00
     81  0.170628D+00 -0.157449D+00  0.279593D+00  0.000000D+00  0.440250D-01
     82  0.157449D+00  0.253390D-01  0.257998D+00  0.000000D+00  0.452714D-01
     83 -0.279593D+00  0.257998D+00 -0.287516D+00  0.000000D+00 -0.119151D+00
     84  0.000000D+00  0.000000D+00  0.000000D+00  0.170628D+00  0.000000D+00
     85  0.440250D-01 -0.452714D-01  0.119151D+00  0.000000D+00  0.854509D-03
     86  0.657107D-01 -0.100150D+00  0.139082D+00  0.000000D+00  0.526511D-02
     87  0.339542D-01 -0.517499D-01  0.918954D-01  0.000000D+00  0.383425D-03
     88 -0.309748D-01  0.136415D-01 -0.649286D-01  0.000000D+00 -0.287112D-02
     89  0.000000D+00  0.000000D+00  0.000000D+00  0.189031D-01  0.000000D+00
     90  0.000000D+00  0.000000D+00  0.000000D+00 -0.335673D-01  0.000000D+00
     91  0.189186D-01  0.584828D-01 -0.255793D-01  0.000000D+00  0.607231D-03
     92  0.114207D+00  0.215483D+00 -0.942484D-01  0.000000D+00  0.398891D-01
     93  0.728573D-01 -0.193844D+00  0.142633D-01  0.000000D+00  0.159858D-01
     94  0.259752D+00 -0.420475D+00  0.309391D-01  0.000000D+00  0.130130D+00
     95  0.377958D+00  0.129778D-02 -0.515179D+00  0.000000D+00  0.118381D+00
     96  0.705568D+00  0.146678D-02 -0.582269D+00  0.000000D+00  0.352133D+00
     97  0.503803D-02  0.187569D-01  0.000000D+00  0.000000D+00  0.558364D-05
     98  0.492084D-01  0.143511D+00  0.000000D+00  0.000000D+00  0.631972D-02
     99 -0.599989D-01 -0.148741D+00  0.000000D+00  0.000000D+00 -0.149525D-01
    100  0.000000D+00  0.000000D+00  0.310491D-01  0.000000D+00  0.000000D+00
    101  0.000000D+00  0.000000D+00  0.000000D+00  0.310491D-01  0.000000D+00
    102  0.154577D+00  0.298703D+00  0.000000D+00  0.000000D+00  0.663574D-01
    103 -0.298703D+00 -0.422633D+00  0.000000D+00  0.000000D+00 -0.172963D+00
    104  0.000000D+00  0.000000D+00  0.154577D+00  0.000000D+00  0.000000D+00
    105  0.000000D+00  0.000000D+00  0.000000D+00  0.154577D+00  0.000000D+00
    106  0.663574D-01  0.172963D+00  0.000000D+00  0.000000D+00  0.133930D-01
    107  0.288424D-01  0.920554D-01  0.000000D+00  0.000000D+00  0.891266D-03
    108  0.288424D-01  0.920554D-01  0.000000D+00  0.000000D+00  0.891266D-03
    109  0.000000D+00  0.000000D+00 -0.336258D-01  0.000000D+00  0.000000D+00
    110  0.000000D+00  0.000000D+00  0.000000D+00 -0.336258D-01  0.000000D+00
    111  0.000000D+00  0.000000D+00  0.000000D+00  0.000000D+00  0.000000D+00
    112  0.525094D-04  0.195210D-03  0.219957D-03  0.000000D+00  0.000000D+00
    113  0.135686D-02  0.398289D-02  0.448780D-02  0.000000D+00  0.000000D+00
    114 -0.154388D-02 -0.379133D-02 -0.517219D-02  0.000000D+00 -0.165771D-05
    115 -0.173960D-02 -0.517219D-02 -0.502892D-02  0.000000D+00 -0.213841D-05
    116  0.000000D+00  0.000000D+00  0.000000D+00  0.798944D-03  0.000000D+00
    117  0.144427D-01  0.279091D-01  0.314472D-01  0.000000D+00  0.132282D-02
    118 -0.279091D-01 -0.394890D-01 -0.607686D-01  0.000000D+00 -0.344802D-02
    119 -0.314472D-01 -0.607686D-01 -0.540295D-01  0.000000D+00 -0.475726D-02
    120  0.000000D+00  0.000000D+00  0.000000D+00  0.144427D-01  0.000000D+00
    121  0.132282D-02  0.344802D-02  0.475726D-02  0.000000D+00  0.000000D+00
    122  0.152445D-02  0.486558D-02  0.461024D-02  0.000000D+00  0.000000D+00
    123  0.574960D-03  0.183510D-02  0.206773D-02  0.000000D+00  0.000000D+00
    124  0.145954D-02  0.390310D-02  0.457862D-02  0.000000D+00  0.000000D+00
    125  0.000000D+00  0.000000D+00  0.000000D+00 -0.670320D-03  0.000000D+00
    126  0.000000D+00  0.000000D+00  0.000000D+00 -0.755296D-03  0.000000D+00
    127  0.447327D-03  0.151475D-05  0.215208D-02  0.000000D+00  0.000000D+00
    128  0.115317D-01  0.239728D-04  0.340593D-01  0.000000D+00  0.434973D-03
    129  0.250672D-02 -0.662427D-02  0.822206D-02  0.000000D+00  0.222075D-05
    130  0.331829D-01 -0.537147D-01  0.666708D-01  0.000000D+00  0.456804D-02
    131  0.541863D-05  0.297429D-04  0.170698D-04  0.000000D+00  0.000000D+00
    132  0.225303D-03  0.978779D-03  0.561732D-03  0.000000D+00  0.000000D+00
    133 -0.371533D-03 -0.149822D-02 -0.934526D-03  0.000000D+00  0.000000D+00
    134 -0.213227D-03 -0.934526D-03 -0.406208D-03  0.000000D+00  0.000000D+00
    135  0.000000D+00  0.000000D+00  0.000000D+00  0.130126D-03  0.000000D+00
    136  0.443373D-02  0.126590D-01  0.726516D-02  0.000000D+00  0.313912D-03
    137 -0.126590D-01 -0.317100D-01 -0.207432D-01  0.000000D+00 -0.131773D-02
    138 -0.726516D-02 -0.207432D-01 -0.747103D-02  0.000000D+00 -0.849588D-03
    139  0.000000D+00  0.000000D+00  0.000000D+00  0.443373D-02  0.000000D+00
    140  0.313912D-03  0.131773D-02  0.849588D-03  0.000000D+00  0.000000D+00
    141  0.158223D-03  0.746149D-03  0.334893D-03  0.000000D+00  0.000000D+00
    142  0.817575D-04  0.385552D-03  0.221273D-03  0.000000D+00  0.000000D+00
    143  0.230772D-03  0.100745D-02  0.483738D-03  0.000000D+00  0.000000D+00
    144  0.000000D+00  0.000000D+00  0.000000D+00 -0.140834D-03  0.000000D+00
    145  0.000000D+00  0.000000D+00  0.000000D+00 -0.808259D-04  0.000000D+00
    146  0.541991D-04  0.297711D-03  0.561774D-04  0.000000D+00  0.000000D+00
    147  0.139122D-02  0.603364D-02  0.113853D-02  0.000000D+00  0.155855D-05
    148 -0.233964D-02 -0.945889D-02 -0.193950D-02  0.000000D+00 -0.581436D-05
    149 -0.441484D-03 -0.193950D-02  0.453462D-03  0.000000D+00 -0.116847D-05
    150  0.000000D+00  0.000000D+00  0.000000D+00  0.819441D-03  0.000000D+00
    151  0.146825D-01  0.419208D-01  0.791035D-02  0.000000D+00  0.226843D-02
    152 -0.419208D-01 -0.105008D+00 -0.225853D-01  0.000000D+00 -0.952230D-02
    153 -0.791035D-02 -0.225853D-01  0.104207D-01  0.000000D+00 -0.201858D-02
    154  0.000000D+00  0.000000D+00  0.000000D+00  0.146825D-01  0.000000D+00
    155  0.226843D-02  0.952230D-02  0.201858D-02  0.000000D+00  0.000000D+00
    156  0.650543D-03  0.306783D-02  0.357144D-03  0.000000D+00  0.000000D+00
    157  0.590809D-03  0.278613D-02  0.525736D-03  0.000000D+00  0.000000D+00
    158  0.548304D-03  0.239365D-02 -0.529797D-03  0.000000D+00  0.000000D+00
    159  0.000000D+00  0.000000D+00  0.000000D+00 -0.101771D-02  0.000000D+00
    160  0.000000D+00  0.000000D+00  0.000000D+00 -0.192040D-03  0.000000D+00
    161  0.231305D-04  0.709088D-04  0.111001D-03  0.000000D+00  0.000000D+00
    162  0.186655D-02  0.352175D-02  0.551296D-02  0.000000D+00  0.492716D-04
    163  0.000000D+00  0.453167D-05  0.259578D-05  0.000000D+00  0.000000D+00
    164  0.234312D-03  0.821876D-03  0.470778D-03  0.000000D+00  0.392894D-05
    165  0.224835D-04  0.128134D-03  0.435111D-05  0.000000D+00  0.000000D+00
    166  0.183424D-02  0.643381D-02  0.218477D-03  0.000000D+00  0.111931D-03
               26            27            28            29            30
     26  0.100000D+01
     27  0.333333D+00  0.100000D+01
     28  0.000000D+00  0.000000D+00  0.100000D+01
     29  0.000000D+00  0.000000D+00  0.000000D+00  0.100000D+01
     30  0.000000D+00  0.000000D+00  0.000000D+00  0.000000D+00  0.100000D+01
     31  0.876255D-02  0.695994D-03  0.253638D-01  0.000000D+00  0.000000D+00
     32  0.123274D+00  0.730436D-01  0.157939D+00  0.000000D+00  0.000000D+00
     33 -0.190868D+00 -0.102613D+00 -0.205599D+00  0.000000D+00  0.000000D+00
     34 -0.221158D-01 -0.565247D-01 -0.223345D-01  0.000000D+00  0.000000D+00
     35  0.000000D+00  0.000000D+00  0.000000D+00  0.130527D+00  0.719009D-01
     36  0.253365D+00  0.230610D+00  0.715475D-01  0.000000D+00  0.000000D+00
     37 -0.404331D+00 -0.368019D+00 -0.401284D-01  0.000000D+00  0.000000D+00
     38 -0.137221D+00 -0.202724D+00  0.715334D-01  0.000000D+00  0.000000D+00
     39  0.000000D+00  0.000000D+00  0.000000D+00  0.134429D+00  0.740504D-01
     40  0.236765D+00  0.101043D+00  0.269471D+00  0.000000D+00  0.000000D+00
     41  0.394332D-01  0.436304D-01  0.269895D-01  0.000000D+00  0.000000D+00
     42  0.436304D-01  0.558600D-01  0.786405D-01  0.000000D+00  0.000000D+00
     43  0.269895D-01  0.786405D-01  0.656922D-01  0.000000D+00  0.000000D+00
     44  0.000000D+00  0.000000D+00  0.000000D+00 -0.191411D+00 -0.136209D+00
     45  0.000000D+00  0.000000D+00  0.000000D+00 -0.136209D+00 -0.191712D-01
     46  0.583241D-05  0.000000D+00  0.586655D-05  0.000000D+00  0.000000D+00
     47  0.567992D-02  0.705052D-03  0.506067D-02  0.000000D+00  0.000000D+00
     48 -0.769652D-02 -0.949323D-03 -0.495391D-02  0.000000D+00  0.000000D+00
     49 -0.108997D-01 -0.161640D-02 -0.105649D-01  0.000000D+00  0.000000D+00
     50  0.000000D+00  0.000000D+00  0.000000D+00  0.112156D-02  0.190966D-02
     51  0.605608D-01  0.311729D-01  0.298948D-01  0.000000D+00  0.000000D+00
     52 -0.966460D-01 -0.497473D-01 -0.167672D-01  0.000000D+00  0.000000D+00
     53 -0.128831D+00 -0.847039D-01 -0.630594D-01  0.000000D+00  0.000000D+00
     54  0.000000D+00  0.000000D+00  0.000000D+00  0.181716D-01  0.309404D-01
     55  0.447057D-02  0.323171D-03  0.266404D-02  0.000000D+00  0.000000D+00
     56  0.845828D-02  0.823818D-03  0.919987D-02  0.000000D+00  0.000000D+00
     57  0.823818D-03  0.178658D-03  0.777447D-03  0.000000D+00  0.000000D+00
     58  0.919987D-02  0.777447D-03  0.724440D-02  0.000000D+00  0.000000D+00
     59  0.000000D+00  0.000000D+00  0.000000D+00 -0.612198D-03 -0.134658D-02
     60  0.000000D+00  0.000000D+00  0.000000D+00 -0.134658D-02 -0.211414D-02
     61  0.000000D+00  0.000000D+00  0.000000D+00  0.000000D+00  0.000000D+00
     62  0.113998D-02  0.852077D-04  0.000000D+00  0.000000D+00  0.000000D+00
     63  0.000000D+00  0.000000D+00  0.304474D-03  0.000000D+00  0.000000D+00
     64 -0.310842D-02 -0.258250D-03  0.000000D+00  0.000000D+00  0.000000D+00
     65  0.000000D+00  0.000000D+00  0.000000D+00  0.000000D+00  0.304474D-03
     66  0.332974D-01  0.125585D-01  0.000000D+00  0.000000D+00  0.000000D+00
     67  0.000000D+00  0.000000D+00  0.164974D-01  0.000000D+00  0.000000D+00
     68 -0.100698D+00 -0.451640D-01  0.000000D+00  0.000000D+00  0.000000D+00
     69  0.000000D+00  0.000000D+00  0.000000D+00  0.000000D+00  0.164974D-01
     70  0.102818D-03  0.437893D-05  0.000000D+00  0.000000D+00  0.000000D+00
     71  0.202919D-02  0.102818D-03  0.000000D+00  0.000000D+00  0.000000D+00
     72  0.102818D-03  0.131368D-04  0.000000D+00  0.000000D+00  0.000000D+00
     73  0.000000D+00  0.000000D+00 -0.282181D-03  0.000000D+00  0.000000D+00
     74  0.000000D+00  0.000000D+00  0.000000D+00  0.131368D-04  0.000000D+00
     75  0.000000D+00  0.000000D+00  0.000000D+00  0.000000D+00 -0.282181D-03
     76  0.862356D-05  0.000000D+00 -0.831681D-05  0.000000D+00  0.000000D+00
     77  0.687798D-02  0.859964D-03 -0.586988D-02  0.000000D+00  0.000000D+00
     78  0.891180D-02  0.110610D-02 -0.529208D-02  0.000000D+00  0.000000D+00
     79 -0.131446D-01 -0.196417D-02  0.122126D-01  0.000000D+00  0.000000D+00
     80  0.000000D+00  0.000000D+00  0.000000D+00 -0.130731D-02  0.232148D-02
     81  0.657107D-01  0.339542D-01 -0.309748D-01  0.000000D+00  0.000000D+00
     82  0.100150D+00  0.517499D-01 -0.136415D-01  0.000000D+00  0.000000D+00
     83 -0.139082D+00 -0.918954D-01  0.649286D-01  0.000000D+00  0.000000D+00
     84  0.000000D+00  0.000000D+00  0.000000D+00 -0.189031D-01  0.335673D-01
     85  0.526511D-02  0.383425D-03 -0.287112D-02  0.000000D+00  0.000000D+00
     86  0.106280D-01  0.104517D-02 -0.110889D-01  0.000000D+00  0.000000D+00
     87  0.104517D-02  0.228340D-03 -0.945203D-03  0.000000D+00  0.000000D+00
     88 -0.110889D-01 -0.945203D-03  0.813713D-02  0.000000D+00  0.000000D+00
     89  0.000000D+00  0.000000D+00  0.000000D+00 -0.693597D-03  0.163714D-02
     90  0.000000D+00  0.000000D+00  0.000000D+00  0.163714D-02 -0.267883D-02
     91  0.152343D-03  0.447356D-04 -0.426128D-03  0.000000D+00  0.000000D+00
     92  0.223262D-01  0.181716D-01 -0.164525D-01  0.000000D+00  0.000000D+00
     93  0.162729D-02  0.154913D-02 -0.183991D-02  0.000000D+00  0.000000D+00
     94  0.695589D-01  0.692291D-01 -0.776165D-02  0.000000D+00  0.000000D+00
     95  0.457835D+00  0.118379D+00 -0.148111D-02  0.000000D+00  0.000000D+00
     96  0.432643D+00  0.352133D+00 -0.351281D-03  0.000000D+00  0.000000D+00
     97  0.000000D+00  0.000000D+00  0.000000D+00  0.000000D+00  0.000000D+00
     98  0.588564D-03  0.588564D-03  0.000000D+00  0.000000D+00  0.000000D+00
     99 -0.158465D-02 -0.158465D-02  0.000000D+00  0.000000D+00  0.000000D+00
    100  0.000000D+00  0.000000D+00  0.187154D-02  0.000000D+00  0.000000D+00
    101  0.000000D+00  0.000000D+00  0.000000D+00  0.187154D-02  0.000000D+00
    102  0.288424D-01  0.288424D-01  0.000000D+00  0.000000D+00  0.000000D+00
    103 -0.920554D-01 -0.920554D-01  0.000000D+00  0.000000D+00  0.000000D+00
[...]
    155 0.000000D+00 0.000000D+00 0.000000D+00 0.000000D+00 0.000000D+00
    156 0.000000D+00 0.000000D+00 0.000000D+00 0.257780D-01 0.000000D+00
    157 0.000000D+00 0.000000D+00 0.000000D+00 0.000000D+00 0.000000D+00
    158 0.000000D+00 0.000000D+00 0.000000D+00 0.000000D+00 0.000000D+00
    159 0.000000D+00 0.000000D+00 0.000000D+00 0.000000D+00 0.000000D+00
    160 0.000000D+00 0.000000D+00 0.000000D+00 0.000000D+00 0.000000D+00
    161 0.277719D-01 0.000000D+00 0.000000D+00 0.113951D-04 0.000000D+00
    162 0.917632D-01 0.519004D-02 0.000000D+00 0.128634D-01 0.220886D-03
    163 0.118705D-04 0.000000D+00 0.000000D+00 0.279030D-01 0.873463D-05
    164 0.129966D-01 0.000000D+00 0.000000D+00 0.918722D-01 0.120299D-01
    165 0.000000D+00 0.000000D+00 0.000000D+00 0.873531D-05 0.279029D-01
    166 0.232235D-03 0.000000D+00 0.000000D+00 0.120302D-01 0.918721D-01
              16           17           18
      1 0.000000D+00 0.000000D+00 0.000000D+00
      2 0.000000D+00 0.000000D+00 0.000000D+00
      3 0.000000D+00 0.000000D+00 0.000000D+00
      4 0.000000D+00 0.000000D+00 0.000000D+00
      5 0.000000D+00 0.000000D+00 0.000000D+00
      6 0.000000D+00 0.000000D+00 0.000000D+00
      7 0.000000D+00 0.000000D+00 0.000000D+00
      8 0.000000D+00 0.000000D+00 0.000000D+00
      9 0.000000D+00 0.000000D+00 0.000000D+00
     10 0.000000D+00 0.000000D+00 0.000000D+00
     11 0.000000D+00 0.000000D+00 0.000000D+00
     12 0.000000D+00 0.000000D+00 0.000000D+00
     13 0.000000D+00 0.000000D+00 0.000000D+00
     14 0.000000D+00 0.000000D+00 0.000000D+00
     15 0.000000D+00 0.000000D+00 0.000000D+00
     16 0.000000D+00 0.000000D+00 0.000000D+00
     17 0.000000D+00 0.000000D+00 0.000000D+00
     18 0.000000D+00 0.000000D+00 0.000000D+00
     19 0.000000D+00 0.000000D+00 0.000000D+00
     20 0.000000D+00 0.000000D+00 0.000000D+00
     21 0.000000D+00 0.000000D+00 0.000000D+00
     22 0.189019D-05 0.000000D+00 0.339064D-05
     23 0.295891D-05 0.000000D+00 0.000000D+00
     24 0.000000D+00 0.000000D+00 0.000000D+00
     25 0.000000D+00 0.000000D+00 0.000000D+00
     26 0.000000D+00 0.000000D+00 0.000000D+00
     27 0.000000D+00 0.000000D+00 0.000000D+00
     28 0.000000D+00 0.000000D+00 0.000000D+00
     29 0.000000D+00 0.000000D+00 0.000000D+00
     30 0.000000D+00 0.000000D+00 0.000000D+00
     31 0.000000D+00 0.000000D+00 0.000000D+00
     32 0.000000D+00 0.000000D+00 0.000000D+00
     33 0.000000D+00 0.000000D+00 0.000000D+00
     34 0.000000D+00 0.000000D+00 0.000000D+00
     35 0.000000D+00 0.000000D+00 0.000000D+00
     36 0.150739D-03 0.190181D-04 0.163598D-03
     37 0.290645D-03 0.997417D-04 0.858001D-03
     38 0.750503D-03 0.579399D-04-0.134274D-03
     39 0.000000D+00 0.000000D+00 0.000000D+00
     40 0.000000D+00 0.000000D+00 0.000000D+00
     41 0.000000D+00 0.000000D+00 0.000000D+00
     42 0.000000D+00 0.000000D+00 0.000000D+00
     43 0.000000D+00 0.000000D+00 0.000000D+00
     44 0.000000D+00 0.000000D+00 0.000000D+00
     45 0.000000D+00 0.000000D+00 0.000000D+00
     46 0.000000D+00 0.000000D+00 0.000000D+00
     47 0.570627D-04 0.000000D+00 0.000000D+00
     48 0.128631D-03 0.000000D+00 0.000000D+00
     49 0.183661D-03 0.000000D+00 0.000000D+00
     50 0.000000D+00 0.000000D+00 0.000000D+00
     51 0.111363D-01 0.163594D-03 0.190192D-04
     52 0.214722D-01 0.857982D-03 0.997473D-04
     53 0.306584D-01 0.134271D-03-0.579434D-04
     54 0.000000D+00 0.000000D+00 0.000000D+00
     55 0.937507D-05 0.000000D+00 0.000000D+00
     56 0.191126D-04 0.000000D+00 0.000000D+00
     57 0.000000D+00 0.000000D+00 0.000000D+00
     58 0.231850D-04 0.000000D+00 0.000000D+00
     59 0.000000D+00 0.000000D+00 0.000000D+00
     60 0.000000D+00 0.000000D+00 0.000000D+00
     61 0.000000D+00 0.000000D+00 0.000000D+00
     62 0.000000D+00 0.000000D+00 0.000000D+00
     63 0.140927D-05 0.000000D+00 0.000000D+00
     64 0.000000D+00 0.000000D+00 0.000000D+00
     65 0.000000D+00 0.000000D+00 0.000000D+00
     66 0.221603D-02 0.000000D+00 0.000000D+00
     67 0.855500D-02 0.339083D-05 0.000000D+00
     68 0.374192D-02 0.000000D+00 0.000000D+00
     69 0.000000D+00 0.000000D+00 0.000000D+00
     70 0.000000D+00 0.000000D+00 0.000000D+00
     71 0.000000D+00 0.000000D+00 0.000000D+00
     72 0.000000D+00 0.000000D+00 0.000000D+00
     73 0.000000D+00 0.000000D+00 0.000000D+00
     74 0.000000D+00 0.000000D+00 0.000000D+00
     75 0.000000D+00 0.000000D+00 0.000000D+00
     76 0.000000D+00 0.000000D+00 0.000000D+00
     77 0.000000D+00 0.000000D+00 0.000000D+00
     78 0.000000D+00 0.000000D+00 0.000000D+00
     79 0.000000D+00 0.000000D+00 0.000000D+00
     80 0.000000D+00 0.000000D+00 0.000000D+00
     81 0.808147D-05 0.000000D+00 0.000000D+00
     82 0.461134D-04 0.000000D+00 0.000000D+00
     83 0.223539D-04 0.000000D+00 0.000000D+00
     84 0.000000D+00 0.000000D+00 0.000000D+00
     85 0.000000D+00 0.000000D+00 0.000000D+00
     86 0.000000D+00 0.000000D+00 0.000000D+00
     87 0.000000D+00 0.000000D+00 0.000000D+00
     88 0.000000D+00 0.000000D+00 0.000000D+00
     89 0.000000D+00 0.000000D+00 0.000000D+00
     90 0.000000D+00 0.000000D+00 0.000000D+00
     91 0.000000D+00 0.000000D+00 0.000000D+00
     92 0.000000D+00 0.422829D-05 0.536509D-02
     93 0.000000D+00 0.000000D+00 0.000000D+00
     94 0.000000D+00 0.000000D+00 0.000000D+00
     95 0.000000D+00 0.000000D+00 0.000000D+00
     96 0.000000D+00 0.000000D+00 0.000000D+00
     97 0.000000D+00 0.000000D+00 0.000000D+00
     98 0.000000D+00 0.000000D+00 0.707649D-04
     99 0.000000D+00 0.000000D+00 0.274023D-03
    100 0.000000D+00 0.000000D+00 0.201628D-04
    101 0.000000D+00 0.000000D+00 0.000000D+00
    102 0.203240D-04 0.176683D-03 0.119046D-01
    103 0.000000D+00 0.585208D-03 0.394302D-01
    104 0.122824D-03 0.726348D-03 0.290129D-02
    105 0.000000D+00 0.000000D+00 0.000000D+00
    106 0.000000D+00 0.000000D+00 0.379591D-04
    107 0.000000D+00 0.000000D+00 0.000000D+00
    108 0.000000D+00 0.000000D+00 0.000000D+00
    109 0.000000D+00 0.000000D+00 0.483771D-05
    110 0.000000D+00 0.000000D+00 0.000000D+00
    111 0.000000D+00 0.000000D+00 0.000000D+00
    112 0.000000D+00 0.000000D+00 0.000000D+00
    113 0.517381D-01 0.707708D-04 0.000000D+00
    114-0.260378D-03 0.274045D-03 0.000000D+00
    115 0.102987D+00-0.201645D-04 0.000000D+00
    116 0.000000D+00 0.000000D+00 0.000000D+00
    117 0.919828D-01 0.119049D-01 0.176696D-03
    118-0.392685D-03 0.394310D-01 0.585245D-03
    119 0.155318D+00-0.290137D-02-0.726404D-03
    120 0.000000D+00 0.000000D+00 0.000000D+00
    121 0.102422D-05 0.379634D-04 0.000000D+00
    122 0.160230D+00 0.000000D+00 0.000000D+00
    123 0.000000D+00 0.000000D+00 0.000000D+00
    124-0.701663D-03-0.483828D-05 0.000000D+00
    125 0.000000D+00 0.000000D+00 0.000000D+00
    126 0.000000D+00 0.000000D+00 0.000000D+00
    127 0.000000D+00 0.000000D+00 0.000000D+00
    128 0.519004D-02 0.000000D+00 0.000000D+00
    129 0.000000D+00 0.000000D+00 0.000000D+00
    130 0.000000D+00 0.000000D+00 0.000000D+00
    131 0.000000D+00 0.000000D+00 0.000000D+00
    132 0.683537D-04 0.519451D-01 0.545271D-04
    133-0.147823D-03 0.898167D-01 0.934945D-04
    134 0.221045D-03 0.510626D-01-0.193381D-03
    135 0.000000D+00 0.000000D+00 0.000000D+00
    136 0.117773D-01 0.920971D-01 0.109805D-01
    137-0.217857D-01 0.135073D+00 0.161042D-01
    138 0.325770D-01 0.767915D-01-0.333094D-01
    139 0.000000D+00 0.000000D+00 0.000000D+00
    140 0.112514D-04 0.121595D+00 0.507366D-05
    141 0.251585D-04 0.393013D-01 0.217059D-04
    142 0.000000D+00 0.000000D+00 0.000000D+00
    143-0.291411D-04 0.119735D+00-0.181765D-04
    144 0.000000D+00 0.000000D+00 0.000000D+00
    145 0.000000D+00 0.000000D+00 0.000000D+00
    146 0.000000D+00 0.000000D+00 0.000000D+00
    147 0.000000D+00 0.545236D-04 0.519450D-01
    148 0.000000D+00 0.934903D-04 0.898165D-01
    149 0.000000D+00 0.193368D-03-0.510626D-01
    150 0.000000D+00 0.000000D+00 0.000000D+00
    151 0.167673D-03 0.109803D-01 0.920970D-01
    152-0.310159D-03 0.161042D-01 0.135073D+00
    153 0.832627D-03 0.333087D-01-0.767916D-01
    154 0.000000D+00 0.000000D+00 0.000000D+00
    155 0.000000D+00 0.507338D-05 0.121595D+00
    156 0.000000D+00 0.217038D-04 0.393013D-01
    157 0.000000D+00 0.000000D+00 0.000000D+00
    158 0.000000D+00 0.181751D-04-0.119735D+00
    159 0.000000D+00 0.000000D+00 0.000000D+00
    160 0.000000D+00 0.000000D+00 0.000000D+00
    161 0.994558D+00 0.000000D+00 0.000000D+00
    162 0.181381D+00 0.536475D-02 0.422810D-05
    163 0.000000D+00 0.994558D+00 0.000000D+00
    164 0.536475D-02 0.181381D+00 0.508537D-02
    165 0.000000D+00 0.000000D+00 0.994558D+00
    166 0.422810D-05 0.508537D-02 0.181381D+00
 Harris functional with IExCor=  402 diagonalized for initial guess.
 ExpMin= 1.61D-01 ExpMax= 3.05D+03 ExpMxC= 4.57D+02 IAcc=1 IRadAn=         1 AccDes= 1.00D-06
 HarFok:  IExCor= 402 AccDes= 1.00D-06 IRadAn=         1 IDoV=1
 ScaDFX=  1.000000  1.000000  1.000000  1.000000
 Warning!  Cutoffs for single-point calculations used.
 Requested convergence on RMS density matrix=1.00D-04 within 128 cycles.
 Requested convergence on MAX density matrix=1.00D-02.
 Requested convergence on             energy=5.00D-05.
 No special actions if energy rises.
 SCF Done:  E(RB+HF-LYP) =  -385.892784492     A.U. after    7 cycles
             Convg  =    0.3178D-05             -V/T =  2.0099
             S**2   =   0.0000

 **********************************************************************

            Population analysis using the SCF density.

 **********************************************************************

 Alpha  occ. eigenvalues --  -10.19554 -10.19513 -10.18962 -10.18961 -10.18924
 Alpha  occ. eigenvalues --  -10.18924 -10.18865 -10.18863 -10.18856 -10.18855
 Alpha  occ. eigenvalues --   -0.86858  -0.81613  -0.76906  -0.73647  -0.71501
 Alpha  occ. eigenvalues --   -0.62192  -0.60731  -0.59228  -0.51090  -0.50813
 Alpha  occ. eigenvalues --   -0.48958  -0.44599  -0.43624  -0.41479  -0.41180
 Alpha  occ. eigenvalues --   -0.39819  -0.38543  -0.36662  -0.33558  -0.32798
 Alpha  occ. eigenvalues --   -0.32306  -0.28119  -0.24021  -0.21270
 Alpha virt. eigenvalues --   -0.03523  -0.00540   0.03590   0.09501   0.10301
 Alpha virt. eigenvalues --    0.11293   0.12176   0.16607   0.16773   0.17453
 Alpha virt. eigenvalues --    0.18280   0.20400   0.20597   0.24690   0.28424
 Alpha virt. eigenvalues --    0.30821   0.31164   0.32577   0.32913   0.36142
 Alpha virt. eigenvalues --    0.47191   0.49447   0.51382   0.52188   0.52748
 Alpha virt. eigenvalues --    0.52770   0.54826   0.56285   0.57084   0.58422
 Alpha virt. eigenvalues --    0.59175   0.60913   0.61171   0.61350   0.61619
 Alpha virt. eigenvalues --    0.61795   0.62680   0.62910   0.63838   0.67391
 Alpha virt. eigenvalues --    0.69098   0.69301   0.75736   0.82638   0.82788
 Alpha virt. eigenvalues --    0.83553   0.83736   0.83792   0.85402   0.85677
 Alpha virt. eigenvalues --    0.89969   0.90126   0.92592   0.94391   0.94536
 Alpha virt. eigenvalues --    0.98629   1.00112   1.05259   1.05799   1.06882
 Alpha virt. eigenvalues --    1.08720   1.15298   1.19525   1.19834   1.24383
 Alpha virt. eigenvalues --    1.25679   1.27675   1.31510   1.39158   1.41398
 Alpha virt. eigenvalues --    1.44459   1.45745   1.46007   1.48981   1.49027
 Alpha virt. eigenvalues --    1.49486   1.50044   1.50979   1.53113   1.72509
 Alpha virt. eigenvalues --    1.77093   1.77751   1.85743   1.89416   1.89857
 Alpha virt. eigenvalues --    1.91018   1.93040   1.94775   1.94910   1.95389
 Alpha virt. eigenvalues --    1.99524   2.03079   2.04869   2.12416   2.14681
 Alpha virt. eigenvalues --    2.16100   2.19878   2.20268   2.20735   2.27985
 Alpha virt. eigenvalues --    2.28118   2.30188   2.32952   2.33720   2.37847
 Alpha virt. eigenvalues --    2.41913   2.60943   2.61466   2.61695   2.61863
 Alpha virt. eigenvalues --    2.64121   2.67324   2.72018   2.75199   2.78195
 Alpha virt. eigenvalues --    2.83316   2.85676   2.87679   2.94046   3.09746
 Alpha virt. eigenvalues --    3.35216   3.47443   4.08098   4.09384   4.11859
 Alpha virt. eigenvalues --    4.12126   4.15070   4.26175   4.34988   4.39998
 Alpha virt. eigenvalues --    4.51625   4.80047
          Condensed to atoms (all electrons):
              1          2          3          4          5          6
     1  C    4.899747   0.520651  -0.004473  -0.038398  -0.020810   0.496438
     2  C    0.520651   5.100253   0.446006  -0.031459  -0.068646  -0.020814
     3  C   -0.004473   0.446006   4.695983   0.492165  -0.031458  -0.038398
     4  C   -0.038398  -0.031459   0.492165   4.695973   0.446004  -0.004475
     5  C   -0.020810  -0.068646  -0.031458   0.446004   5.100272   0.520647
     6  C    0.496438  -0.020814  -0.038398  -0.004475   0.520647   4.899748
     7  H    0.000186  -0.008513  -0.041510   0.004652  -0.000181   0.000012
     8  H    0.356915  -0.037189   0.002841   0.000978   0.004283  -0.041414
     9  H   -0.045679   0.353656  -0.041510   0.004652   0.000515   0.004530
    10  C    0.008125  -0.089536   0.446003  -0.031459   0.014541  -0.000546
    11  C   -0.000546   0.014540  -0.031458   0.446007  -0.089536   0.008124
    12  H    0.004530   0.000515   0.004652  -0.041510   0.353654  -0.045679
    13  H   -0.041414   0.004283   0.000978   0.002841  -0.037188   0.356917
    14  C    0.000054  -0.000546  -0.038398  -0.004474   0.008125  -0.000353
    15  C   -0.000353   0.008124  -0.004474  -0.038398  -0.000546   0.000054
    16  H    0.000012  -0.000181   0.004652  -0.041509  -0.008513   0.000186
    17  H    0.000000   0.000010   0.000978   0.002841  -0.000191   0.000003
    18  H    0.000003  -0.000190   0.002841   0.000978   0.000010   0.000000
              7          8          9         10         11         12
     1  C    0.000186   0.356915  -0.045679   0.008125  -0.000546   0.004530
     2  C   -0.008513  -0.037189   0.353656  -0.089536   0.014540   0.000515
     3  C   -0.041510   0.002841  -0.041510   0.446003  -0.031458   0.004652
     4  C    0.004652   0.000978   0.004652  -0.031459   0.446007  -0.041510
     5  C   -0.000181   0.004283   0.000515   0.014541  -0.089536   0.353654
     6  C    0.000012  -0.041414   0.004530  -0.000546   0.008124  -0.045679
     7  H    0.602407  -0.000011   0.006478   0.353656   0.000515   0.000003
     8  H   -0.000011   0.594754  -0.005484  -0.000191   0.000010  -0.000187
     9  H    0.006478  -0.005484   0.602408  -0.008513  -0.000181   0.000020
    10  C    0.353656  -0.000191  -0.008513   5.100262  -0.068645  -0.000181
    11  C    0.000515   0.000010  -0.000181  -0.068645   5.100253  -0.008513
    12  H    0.000003  -0.000187   0.000020  -0.000181  -0.008513   0.602410
    13  H    0.000000  -0.004870  -0.000187   0.000010  -0.000190  -0.005484
    14  C    0.004530   0.000000   0.000012  -0.020812   0.520650   0.000186
    15  C   -0.045679   0.000003   0.000186   0.520648  -0.020813   0.000012
    16  H    0.000020   0.000000   0.000003   0.000515   0.353654   0.006478
    17  H   -0.000187   0.000000   0.000000   0.004283  -0.037188  -0.000011
    18  H   -0.005484   0.000000  -0.000011  -0.037188   0.004283   0.000000
             13         14         15         16         17         18
     1  C   -0.041414   0.000054  -0.000353   0.000012   0.000000   0.000003
     2  C    0.004283  -0.000546   0.008124  -0.000181   0.000010  -0.000190
     3  C    0.000978  -0.038398  -0.004474   0.004652   0.000978   0.002841
     4  C    0.002841  -0.004474  -0.038398  -0.041509   0.002841   0.000978
     5  C   -0.037188   0.008125  -0.000546  -0.008513  -0.000191   0.000010
     6  C    0.356917  -0.000353   0.000054   0.000186   0.000003   0.000000
     7  H    0.000000   0.004530  -0.045679   0.000020  -0.000187  -0.005484
     8  H   -0.004870   0.000000   0.000003   0.000000   0.000000   0.000000
     9  H   -0.000187   0.000012   0.000186   0.000003   0.000000  -0.000011
    10  C    0.000010  -0.020812   0.520648   0.000515   0.004283  -0.037188
    11  C   -0.000190   0.520650  -0.020813   0.353654  -0.037188   0.004283
    12  H   -0.005484   0.000186   0.000012   0.006478  -0.000011   0.000000
    13  H    0.594750   0.000003   0.000000  -0.000011   0.000000   0.000000
    14  C    0.000003   4.899748   0.496437  -0.045678   0.356915  -0.041413
    15  C    0.000000   0.496437   4.899752   0.004530  -0.041413   0.356914
    16  H   -0.000011  -0.045678   0.004530   0.602408  -0.005484  -0.000187
    17  H    0.000000   0.356915  -0.041413  -0.005484   0.594752  -0.004870
    18  H    0.000000  -0.041413   0.356914  -0.000187  -0.004870   0.594753
 Mulliken atomic charges:
              1
     1  C   -0.134986
     2  C   -0.190965
     3  C    0.134580
     4  C    0.134591
     5  C   -0.190983
     6  C   -0.134980
     7  H    0.129103
     8  H    0.129560
     9  H    0.129103
    10  C   -0.190975
    11  C   -0.190967
    12  H    0.129102
    13  H    0.129561
    14  C   -0.134984
    15  C   -0.134985
    16  H    0.129103
    17  H    0.129561
    18  H    0.129560
 Sum of Mulliken charges=   0.00000
 Atomic charges with hydrogens summed into heavy atoms:
              1
     1  C   -0.005426
     2  C   -0.061862
     3  C    0.134580
     4  C    0.134591
     5  C   -0.061881
     6  C   -0.005419
     7  H    0.000000
     8  H    0.000000
     9  H    0.000000
    10  C   -0.061871
    11  C   -0.061864
    12  H    0.000000
    13  H    0.000000
    14  C   -0.005423
    15  C   -0.005425
    16  H    0.000000
    17  H    0.000000
    18  H    0.000000
 Sum of Mulliken charges=   0.00000
 Electronic spatial extent (au):  <R**2>=  3477.1810
 Charge=     0.0000 electrons
 Dipole moment (field-independent basis, Debye):
    X=     0.0000    Y=     0.0000    Z=     0.0000  Tot=     0.0000
 Quadrupole moment (field-independent basis, Debye-Ang):
   XX=   -50.6689   YY=   -51.0381   ZZ=   -62.1929
   XY=     0.0000   XZ=     0.0000   YZ=     0.0000
 Traceless Quadrupole moment (field-independent basis, Debye-Ang):
   XX=     3.9644   YY=     3.5952   ZZ=    -7.5596
   XY=     0.0000   XZ=     0.0000   YZ=     0.0000
 Octapole moment (field-independent basis, Debye-Ang**2):
  XXX=    -0.0002  YYY=    -0.0001  ZZZ=  -559.7359  XYY=     0.0000
  XXY=     0.0003  XXZ=  -152.0066  XZZ=    -0.0001  YZZ=     0.0000
  YYZ=  -153.1142  XYZ=    -0.0001
 Hexadecapole moment (field-independent basis, Debye-Ang**3):
 XXXX= -1078.3796 YYYY=  -480.0013 ZZZZ= -3422.9722 XXXY=    -0.0017
 XXXZ=    -0.0006 YYYX=    -0.0016 YYYZ=    -0.0002 ZZZX=    -0.0004
 ZZZY=     0.0003 XXYY=  -264.2611 XXZZ=  -686.5448 YYZZ=  -566.2587
 XXYZ=     0.0008 YYXZ=    -0.0001 ZZXY=    -0.0009
 N-N= 4.571899839162D+02 E-N=-1.807526973861D+03  KE= 3.820973801120D+02

 Test job not archived.
 1\1\GINC-RHUBARB\SP\RB3LYP\6-31G(d)\C10H8\JK905\10-Oct-2007\0\\# B3LYP
 /6-31G* PUNCH=MO IOP(3/33=1) NOSYMM\\04/10/07: Geometry from napthalen
 e_b3lyp_of.log and reorientated to put long axi geometric centre on 3\
 \0,1\C,0,-2.4336,-0.70848,3.\C,0,-1.24478,-1.40258,3.\C,0,-0.000001809
 1,-0.716892,3.\C,0,0.0000023856,0.716891,3.\C,0,-1.24476,1.40257,3.\C,
 0,-2.4336,0.708481,3.\H,0,1.24204,-2.49027,3.\H,0,-3.37834,-1.24559,3.
 \H,0,-1.24204,-2.49028,3.\C,0,1.24476,-1.40258,3.\C,0,1.24478,1.40258,
 3.\H,0,-1.24204,2.49027,3.\H,0,-3.37833,1.24559,3.\C,0,2.4336,0.708481
 ,3.\C,0,2.43359,-0.70848,3.\H,0,1.24203,2.49028,3.\H,0,3.37835,1.24559
 ,3.\H,0,3.37834,-1.24559,3.\\Version=x86_64-Linux-G03RevB.05\HF=-385.8
 927845\RMSD=3.178e-06\Dipole=-0.0000035,-0.0000006,0.\PG=CS [SG(C10H8)
 ]\\@


 NEVER TEACH A PIG TO SING.
 IT WASTES YOUR TIME AND ANNOYS THE PIG.
     -- SEEN ON A GREETING CARD
 Job cpu time:  0 days  0 hours  2 minutes  2.0 seconds.
 File lengths (MBytes):  RWF=     27 Int=      0 D2E=      0 Chk=     11 Scr=      1
 Normal termination of Gaussian 03 at Wed Oct 10 10:15:45 2007.
