 Entering Gaussian System, Link 0=g03
 Input=3.5_pair.com
 Output=3.5_pair.log
 Initial command:
 /usr/local/g03/l1.exe /export/home/joe2/code/svnJ/J_from_g03/examples/naphthalene_zindo/Gau-12509.inp -scrdir=/export/home/joe2/code/svnJ/J_from_g03/examples/naphthalene_zindo/
 Entering Link 1 = /usr/local/g03/l1.exe PID=     12510.
  
 Copyright (c) 1988,1990,1992,1993,1995,1998,2003, Gaussian, Inc.
                  All Rights Reserved.
  
 This is the Gaussian(R) 03 program.  It is based on the
 the Gaussian(R) 98 system (copyright 1998, Gaussian, Inc.),
 the Gaussian(R) 94 system (copyright 1995, Gaussian, Inc.),
 the Gaussian 92(TM) system (copyright 1992, Gaussian, Inc.),
 the Gaussian 90(TM) system (copyright 1990, Gaussian, Inc.),
 the Gaussian 88(TM) system (copyright 1988, Gaussian, Inc.),
 the Gaussian 86(TM) system (copyright 1986, Carnegie Mellon
 University), and the Gaussian 82(TM) system (copyright 1983,
 Carnegie Mellon University). Gaussian is a federally registered
 trademark of Gaussian, Inc.
  
 This software contains proprietary and confidential information,
 including trade secrets, belonging to Gaussian, Inc.
  
 This software is provided under written license and may be
 used, copied, transmitted, or stored only in accord with that
 written license.
  
 The following legend is applicable only to US Government
 contracts under DFARS:
  
                    RESTRICTED RIGHTS LEGEND
  
 Use, duplication or disclosure by the US Government is subject
 to restrictions as set forth in subparagraph (c)(1)(ii) of the
 Rights in Technical Data and Computer Software clause at DFARS
 252.227-7013.
  
 Gaussian, Inc.
 Carnegie Office Park, Building 6, Pittsburgh, PA 15106 USA
  
 The following legend is applicable only to US Government
 contracts under FAR:
  
                    RESTRICTED RIGHTS LEGEND
  
 Use, reproduction and disclosure by the US Government is subject
 to restrictions as set forth in subparagraph (c) of the
 Commercial Computer Software - Restricted Rights clause at FAR
 52.227-19.
  
 Gaussian, Inc.
 Carnegie Office Park, Building 6, Pittsburgh, PA 15106 USA
  
  
 ---------------------------------------------------------------
 Warning -- This program may not be used in any manner that
 competes with the business of Gaussian, Inc. or will provide
 assistance to any competitor of Gaussian, Inc.  The licensee
 of this program is prohibited from giving any competitor of
 Gaussian, Inc. access to this program.  By using this program,
 the user acknowledges that Gaussian, Inc. is engaged in the
 business of creating and licensing software in the field of
 computational chemistry and represents and warrants to the
 licensee that it is not a competitor of Gaussian, Inc. and that
 it will not use this program in any manner prohibited above.
 ---------------------------------------------------------------
  

 Cite this work as:
 Gaussian 03, Revision B.05,
 M. J. Frisch, G. W. Trucks, H. B. Schlegel, G. E. Scuseria, 
 M. A. Robb, J. R. Cheeseman, J. A. Montgomery, Jr., T. Vreven, 
 K. N. Kudin, J. C. Burant, J. M. Millam, S. S. Iyengar, J. Tomasi, 
 V. Barone, B. Mennucci, M. Cossi, G. Scalmani, N. Rega, 
 G. A. Petersson, H. Nakatsuji, M. Hada, M. Ehara, K. Toyota, 
 R. Fukuda, J. Hasegawa, M. Ishida, T. Nakajima, Y. Honda, O. Kitao, 
 H. Nakai, M. Klene, X. Li, J. E. Knox, H. P. Hratchian, J. B. Cross, 
 C. Adamo, J. Jaramillo, R. Gomperts, R. E. Stratmann, O. Yazyev, 
 A. J. Austin, R. Cammi, C. Pomelli, J. W. Ochterski, P. Y. Ayala, 
 K. Morokuma, G. A. Voth, P. Salvador, J. J. Dannenberg, 
 V. G. Zakrzewski, S. Dapprich, A. D. Daniels, M. C. Strain, 
 O. Farkas, D. K. Malick, A. D. Rabuck, K. Raghavachari, 
 J. B. Foresman, J. V. Ortiz, Q. Cui, A. G. Baboul, S. Clifford, 
 J. Cioslowski, B. B. Stefanov, G. Liu, A. Liashenko, P. Piskorz, 
 I. Komaromi, R. L. Martin, D. J. Fox, T. Keith, M. A. Al-Laham, 
 C. Y. Peng, A. Nanayakkara, M. Challacombe, P. M. W. Gill, 
 B. Johnson, W. Chen, M. W. Wong, C. Gonzalez, and J. A. Pople, 
 Gaussian, Inc., Pittsburgh PA, 2003.
 
 *************************************************
 Gaussian 03:  x86_64-Linux-G03RevB.05  8-Nov-2003
                    10-Oct-2007 
 *************************************************
 -----------------------------------
 # zindo punch=mo iop(3/33=1) nosymm
 -----------------------------------
 1/30=1,38=1/1;
 2/15=1,17=6,18=5,40=1/2;
 3/5=2,12=3,16=1,25=1,33=1,41=400000/1,2,8,3;
 4/5=3,11=1,35=1/1;
 5/5=2,35=1,38=5/2;
 8/6=1/1;
 9/42=1,49=10/14;
 6/7=2,8=2,9=2,10=2/1;
 99/5=1,9=1,10=32/99;
 ----------------------------------------------------------------------
 04/10/07: Geometry from napthalene_b3lyp_of.log and reorientated to pu
 t long axi geometric centre on origin.
 ----------------------------------------------------------------------
 Symbolic Z-matrix:
 Charge =  0 Multiplicity = 1
 C                    -2.4336   -0.70848   0. 
 C                    -1.24478  -1.40258   0. 
 C                    0.        -0.71689   0. 
 C                     0.        0.71689   0. 
 C                    -1.24476   1.40257   0. 
 C                    -2.4336    0.70848   0. 
 H                     1.24204  -2.49027   0. 
 H                    -3.37834  -1.24559   0. 
 H                    -1.24204  -2.49028   0. 
 C                     1.24476  -1.40258   0. 
 C                     1.24478   1.40258   0. 
 H                    -1.24204   2.49027   0. 
 H                    -3.37833   1.24559   0. 
 C                     2.4336    0.70848   0. 
 C                     2.43359  -0.70848   0. 
 H                     1.24203   2.49028   0. 
 H                     3.37835   1.24559   0. 
 H                     3.37834  -1.24559   0. 
 C                    -2.4336   -0.70848   3.5 
 C                    -1.24478  -1.40258   3.5 
 C                    0.        -0.71689   3.5 
 C                     0.        0.71689   3.5 
 C                    -1.24476   1.40257   3.5 
 C                    -2.4336    0.70848   3.5 
 H                     1.24204  -2.49027   3.5 
 H                    -3.37834  -1.24559   3.5 
 H                    -1.24204  -2.49028   3.5 
 C                     1.24476  -1.40258   3.5 
 C                     1.24478   1.40258   3.5 
 H                    -1.24204   2.49027   3.5 
 H                    -3.37833   1.24559   3.5 
 C                     2.4336    0.70848   3.5 
 C                     2.43359  -0.70848   3.5 
 H                     1.24203   2.49028   3.5 
 H                     3.37835   1.24559   3.5 
 H                     3.37834  -1.24559   3.5 
 
                          Input orientation:                          
 ---------------------------------------------------------------------
 Center     Atomic     Atomic              Coordinates (Angstroms)
 Number     Number      Type              X           Y           Z
 ---------------------------------------------------------------------
    1          6             0       -2.433600   -0.708480    0.000000
    2          6             0       -1.244780   -1.402580    0.000000
    3          6             0       -0.000002   -0.716892    0.000000
    4          6             0        0.000002    0.716891    0.000000
    5          6             0       -1.244760    1.402570    0.000000
    6          6             0       -2.433600    0.708481    0.000000
    7          1             0        1.242040   -2.490270    0.000000
    8          1             0       -3.378340   -1.245590    0.000000
    9          1             0       -1.242040   -2.490280    0.000000
   10          6             0        1.244760   -1.402580    0.000000
   11          6             0        1.244780    1.402580    0.000000
   12          1             0       -1.242040    2.490270    0.000000
   13          1             0       -3.378330    1.245590    0.000000
   14          6             0        2.433600    0.708481    0.000000
   15          6             0        2.433590   -0.708480    0.000000
   16          1             0        1.242030    2.490280    0.000000
   17          1             0        3.378350    1.245590    0.000000
   18          1             0        3.378340   -1.245590    0.000000
   19          6             0       -2.433600   -0.708480    3.500000
   20          6             0       -1.244780   -1.402580    3.500000
   21          6             0       -0.000002   -0.716892    3.500000
   22          6             0        0.000002    0.716891    3.500000
   23          6             0       -1.244760    1.402570    3.500000
   24          6             0       -2.433600    0.708481    3.500000
   25          1             0        1.242040   -2.490270    3.500000
   26          1             0       -3.378340   -1.245590    3.500000
   27          1             0       -1.242040   -2.490280    3.500000
   28          6             0        1.244760   -1.402580    3.500000
   29          6             0        1.244780    1.402580    3.500000
   30          1             0       -1.242040    2.490270    3.500000
   31          1             0       -3.378330    1.245590    3.500000
   32          6             0        2.433600    0.708481    3.500000
   33          6             0        2.433590   -0.708480    3.500000
   34          1             0        1.242030    2.490280    3.500000
   35          1             0        3.378350    1.245590    3.500000
   36          1             0        3.378340   -1.245590    3.500000
 ---------------------------------------------------------------------
                    Distance matrix (angstroms):
                    1          2          3          4          5
     1  C    0.000000
     2  C    1.376615   0.000000
     3  C    2.433613   1.421141   0.000000
     4  C    2.820302   2.457975   1.433783   0.000000
     5  C    2.422782   2.805150   2.457955   1.421122   0.000000
     6  C    1.416961   2.422782   2.820299   2.433617   1.376626
     7  H    4.084741   2.714285   2.165072   3.439264   4.619348
     8  H    1.086748   2.139328   3.419458   3.906985   3.400723
     9  H    2.143508   1.087703   2.165078   3.439275   3.892851
    10  C    3.743275   2.489540   1.421126   2.457962   3.750543
    11  C    4.241115   3.750578   2.457975   1.421141   2.489540
    12  H    3.413476   3.892851   3.439265   2.165073   1.087703
    13  H    2.170462   3.400712   3.906973   3.419452   2.139337
    14  C    5.069262   4.241115   2.820302   2.433612   3.743273
    15  C    4.867190   3.743285   2.433606   2.820289   4.241084
    16  H    4.872609   4.619370   3.439272   2.165073   2.714266
    17  H    6.131652   5.327864   3.906993   3.419467   4.625774
    18  H    5.836706   4.625785   3.419461   3.906981   5.327833
    19  C    3.500000   3.760993   4.262918   4.494897   4.256744
    20  C    3.760993   3.500000   3.777518   4.276873   4.485406
    21  C    4.262918   3.777518   3.500000   3.782292   4.276861
    22  C    4.494897   4.276873   3.782292   3.500000   3.777511
    23  C    4.256744   4.485406   4.276861   3.777511   3.500000
    24  C    3.775947   4.256744   4.494896   4.262921   3.760997
    25  H    5.379136   4.429147   4.115524   4.906989   5.795548
    26  H    3.664836   4.102039   4.893127   5.245429   4.880053
    27  H    4.104221   3.665119   4.115527   4.906997   5.234911
    28  C    5.124657   4.295091   3.777512   4.276866   5.129968
    29  C    5.498823   5.129993   4.276873   3.777518   4.295091
    30  H    4.888948   5.234911   4.906990   4.115525   3.665119
    31  H    4.118362   4.880045   5.245421   4.893123   4.102044
    32  C    6.160147   5.498823   4.494898   4.262918   5.124655
    33  C    5.994959   5.124664   4.262914   4.494889   5.498799
    34  H    5.999360   5.795566   4.906995   4.115524   4.429135
    35  H    7.060252   6.374648   5.245436   4.893133   5.800671
    36  H    6.805669   5.800680   4.893129   5.245426   6.374622
                    6          7          8          9         10
     6  C    0.000000
     7  H    4.872611   0.000000
     8  H    2.170467   4.785096   0.000000
     9  H    3.413486   2.484080   2.472454   0.000000
    10  C    4.241098   1.087693   4.625765   2.714271   0.000000
    11  C    3.743294   3.892851   5.327855   4.619376   2.805160
    12  H    2.143499   5.565648   4.303537   4.980550   4.619357
    13  H    1.086739   5.941756   2.491180   4.303540   5.327829
    14  C    4.867200   3.413477   6.131643   4.872618   2.422792
    15  C    5.069252   2.143494   5.836696   4.084736   1.376623
    16  H    4.084735   4.980550   5.941763   5.565661   3.892861
    17  H    5.836716   4.303542   7.201308   5.941778   3.400737
    18  H    6.131643   2.472449   6.756680   4.785098   2.139348
    19  C    3.775947   5.379136   3.664836   4.104221   5.124657
    20  C    4.256744   4.429147   4.102039   3.665119   4.295091
    21  C    4.494896   4.115524   4.893127   4.115527   3.777512
    22  C    4.262921   4.906989   5.245429   4.906997   4.276866
    23  C    3.760997   5.795548   4.880053   5.234911   5.129968
    24  C    3.500000   5.999361   4.118365   4.888956   5.498810
    25  H    5.999361   3.500000   5.928502   4.291929   3.665116
    26  H    4.118365   5.928502   3.500000   4.285211   5.800664
    27  H    4.888956   4.291929   4.285211   3.500000   4.429138
    28  C    5.498810   3.665116   5.800664   4.429138   3.500000
    29  C    5.124671   5.234911   6.374641   5.795570   4.485412
    30  H    4.104216   6.574681   5.547110   6.087354   5.795555
    31  H    3.664833   6.895975   4.296042   5.547113   6.374619
    32  C    5.994968   4.888949   7.060244   5.999367   4.256750
    33  C    6.160139   4.104213   6.805661   5.379133   3.760996
    34  H    5.379132   6.087354   6.895980   6.574693   5.234918
    35  H    6.805678   5.547114   8.006799   6.895994   4.880063
    36  H    7.060244   4.285208   7.609384   5.928504   4.102049
                   11         12         13         14         15
    11  C    0.000000
    12  H    2.714285   0.000000
    13  H    4.625775   2.472441   0.000000
    14  C    1.376614   4.084740   5.836696   0.000000
    15  C    2.422776   4.872603   6.131623   1.416961   0.000000
    16  H    1.087703   2.484070   4.785079   2.143513   3.413485
    17  H    2.139338   4.785105   6.756680   1.086756   2.170475
    18  H    3.400718   5.941764   7.201289   2.170467   1.086757
    19  C    5.498823   4.888948   4.118362   6.160147   5.994959
    20  C    5.129993   5.234911   4.880045   5.498823   5.124664
    21  C    4.276873   4.906990   5.245421   4.494898   4.262914
    22  C    3.777518   4.115525   4.893123   4.262918   4.494889
    23  C    4.295091   3.665119   4.102044   5.124655   5.498799
    24  C    5.124671   4.104216   3.664833   5.994968   6.160139
    25  H    5.234911   6.574681   6.895975   4.888949   4.104213
    26  H    6.374641   5.547110   4.296042   7.060244   6.805661
    27  H    5.795570   6.087354   5.547113   5.999367   5.379133
    28  C    4.485412   5.795555   6.374619   4.256750   3.760996
    29  C    3.500000   4.429147   5.800672   3.760993   4.256741
    30  H    4.429147   3.500000   4.285203   5.379136   5.999355
    31  H    5.800672   4.285203   3.500000   6.805661   7.060227
    32  C    3.760993   5.379136   6.805661   3.500000   3.775947
    33  C    4.256741   5.999355   7.060227   3.775947   3.500000
    34  H    3.665119   4.291923   5.928489   4.104223   4.888955
    35  H    4.102044   5.928510   7.609384   3.664838   4.118369
    36  H    4.880049   6.895982   8.006783   4.118365   3.664838
                   16         17         18         19         20
    16  H    0.000000
    17  H    2.472472   0.000000
    18  H    4.303550   2.491180   0.000000
    19  C    5.999360   7.060252   6.805669   0.000000
    20  C    5.795566   6.374648   5.800680   1.376615   0.000000
    21  C    4.906995   5.245436   4.893129   2.433613   1.421141
    22  C    4.115524   4.893133   5.245426   2.820302   2.457975
    23  C    4.429135   5.800671   6.374622   2.422782   2.805150
    24  C    5.379132   6.805678   7.060244   1.416961   2.422782
    25  H    6.087354   5.547114   4.285208   4.084741   2.714285
    26  H    6.895980   8.006799   7.609384   1.086748   2.139328
    27  H    6.574693   6.895994   5.928504   2.143508   1.087703
    28  C    5.234918   4.880063   4.102049   3.743275   2.489540
    29  C    3.665119   4.102044   4.880049   4.241115   3.750578
    30  H    4.291923   5.928510   6.895982   3.413476   3.892851
    31  H    5.928489   7.609384   8.006783   2.170462   3.400712
    32  C    4.104223   3.664838   4.118365   5.069262   4.241115
    33  C    4.888955   4.118369   3.664838   4.867190   3.743285
    34  H    3.500000   4.285221   5.547120   4.872609   4.619370
    35  H    4.285221   3.500000   4.296042   6.131652   5.327864
    36  H    5.547120   4.296042   3.500000   5.836706   4.625785
                   21         22         23         24         25
    21  C    0.000000
    22  C    1.433783   0.000000
    23  C    2.457955   1.421122   0.000000
    24  C    2.820299   2.433617   1.376626   0.000000
    25  H    2.165072   3.439264   4.619348   4.872611   0.000000
    26  H    3.419458   3.906985   3.400723   2.170467   4.785096
    27  H    2.165078   3.439275   3.892851   3.413486   2.484080
    28  C    1.421126   2.457962   3.750543   4.241098   1.087693
    29  C    2.457975   1.421141   2.489540   3.743294   3.892851
    30  H    3.439265   2.165073   1.087703   2.143499   5.565648
    31  H    3.906973   3.419452   2.139337   1.086739   5.941756
    32  C    2.820302   2.433612   3.743273   4.867200   3.413477
    33  C    2.433606   2.820289   4.241084   5.069252   2.143494
    34  H    3.439272   2.165073   2.714266   4.084735   4.980550
    35  H    3.906993   3.419467   4.625774   5.836716   4.303542
    36  H    3.419461   3.906981   5.327833   6.131643   2.472449
                   26         27         28         29         30
    26  H    0.000000
    27  H    2.472454   0.000000
    28  C    4.625765   2.714271   0.000000
    29  C    5.327855   4.619376   2.805160   0.000000
    30  H    4.303537   4.980550   4.619357   2.714285   0.000000
    31  H    2.491180   4.303540   5.327829   4.625775   2.472441
    32  C    6.131643   4.872618   2.422792   1.376614   4.084740
    33  C    5.836696   4.084736   1.376623   2.422776   4.872603
    34  H    5.941763   5.565661   3.892861   1.087703   2.484070
    35  H    7.201308   5.941778   3.400737   2.139338   4.785105
    36  H    6.756680   4.785098   2.139348   3.400718   5.941764
                   31         32         33         34         35
    31  H    0.000000
    32  C    5.836696   0.000000
    33  C    6.131623   1.416961   0.000000
    34  H    4.785079   2.143513   3.413485   0.000000
    35  H    6.756680   1.086756   2.170475   2.472472   0.000000
    36  H    7.201289   2.170467   1.086757   4.303550   2.491180
                   36
    36  H    0.000000
 Symmetry turned off by external request.
 Stoichiometry    C20H16
 Framework group  CS[X(C20H16)]
 Deg. of freedom    51
 Full point group                 CS      NOp   2
 Rotational constants (GHZ):      0.4558708      0.4410042      0.3146546
 Standard basis: VSTO-6G (5D, 7F)
                         Coordinates in L301:                         
 ---------------------------------------------------------------------
 Center     Atomic     Atomic              Coordinates (Angstroms)
 Number     Number      Type              X           Y           Z
 ---------------------------------------------------------------------
    1          6             0       -2.433600   -0.708480    0.000000
    2          6             0       -1.244780   -1.402580    0.000000
    3          6             0       -0.000002   -0.716892    0.000000
    4          6             0        0.000002    0.716891    0.000000
    5          6             0       -1.244760    1.402570    0.000000
    6          6             0       -2.433600    0.708481    0.000000
    7          1             0        1.242040   -2.490270    0.000000
    8          1             0       -3.378340   -1.245590    0.000000
    9          1             0       -1.242040   -2.490280    0.000000
   10          6             0        1.244760   -1.402580    0.000000
   11          6             0        1.244780    1.402580    0.000000
   12          1             0       -1.242040    2.490270    0.000000
   13          1             0       -3.378330    1.245590    0.000000
   14          6             0        2.433600    0.708481    0.000000
   15          6             0        2.433590   -0.708480    0.000000
   16          1             0        1.242030    2.490280    0.000000
   17          1             0        3.378350    1.245590    0.000000
   18          1             0        3.378340   -1.245590    0.000000
   19          6             0       -2.433600   -0.708480    3.500000
   20          6             0       -1.244780   -1.402580    3.500000
   21          6             0       -0.000002   -0.716892    3.500000
   22          6             0        0.000002    0.716891    3.500000
   23          6             0       -1.244760    1.402570    3.500000
   24          6             0       -2.433600    0.708481    3.500000
   25          1             0        1.242040   -2.490270    3.500000
   26          1             0       -3.378340   -1.245590    3.500000
   27          1             0       -1.242040   -2.490280    3.500000
   28          6             0        1.244760   -1.402580    3.500000
   29          6             0        1.244780    1.402580    3.500000
   30          1             0       -1.242040    2.490270    3.500000
   31          1             0       -3.378330    1.245590    3.500000
   32          6             0        2.433600    0.708481    3.500000
   33          6             0        2.433590   -0.708480    3.500000
   34          1             0        1.242030    2.490280    3.500000
   35          1             0        3.378350    1.245590    3.500000
   36          1             0        3.378340   -1.245590    3.500000
 ---------------------------------------------------------------------
 LdAtmC:  AtmChg=     4.000000     4.000000     4.000000     4.000000     4.000000
 LdAtmC:  AtmChg=     4.000000     1.000000     1.000000     1.000000     4.000000
 LdAtmC:  AtmChg=     4.000000     1.000000     1.000000     4.000000     4.000000
 LdAtmC:  AtmChg=     1.000000     1.000000     1.000000     4.000000     4.000000
 LdAtmC:  AtmChg=     4.000000     4.000000     4.000000     4.000000     1.000000
 LdAtmC:  AtmChg=     1.000000     1.000000     4.000000     4.000000     1.000000
 LdAtmC:  AtmChg=     1.000000     4.000000     4.000000     1.000000     1.000000
 LdAtmC:  AtmChg=     1.000000
 AtZEff=  -3.9000000  -3.9000000  -3.9000000  -3.9000000  -3.9000000  -3.9000000  -1.0000000  -1.0000000  -1.0000000  -3.9000000
 AtZEff=  -3.9000000  -1.0000000  -1.0000000  -3.9000000  -3.9000000  -1.0000000  -1.0000000  -1.0000000  -3.9000000  -3.9000000
 AtZEff=  -3.9000000  -3.9000000  -3.9000000  -3.9000000  -1.0000000  -1.0000000  -1.0000000  -3.9000000  -3.9000000  -1.0000000
 AtZEff=  -1.0000000  -3.9000000  -3.9000000  -1.0000000  -1.0000000  -1.0000000
 Integral buffers will be    131072 words long.
 Regular integral format.
 Two-electron integral symmetry is turned off.
    96 basis functions,   576 primitive gaussians,    96 cartesian basis functions
    48 alpha electrons       48 beta electrons
       nuclear repulsion energy       721.5790807596 Hartrees.
 Do NDO integrals.
 NPDir=0 NMtPBC=     1 NCelOv=     1 NCel=       1 NClECP=     1 NCelD=      1
         NCelK=      1 NCelE2=     1 NClLst=     1 CellRange=     0.0.
 One-electron integrals computed using PRISM.
 Entering OneElI...
 Calculate overlap and kinetic energy integrals
    NBasis =  96  MinDer = 0  MaxDer = 0
 Requested accuracy = 0.1000D-12
 PrsmSu:  NPrtUS=   1 ThrOK=F
 PRISM was handed     5643198 working-precision words and  1596 shell-pairs
 *** Overlap *** 
                1             2             3             4             5
      1  0.100000D+01
      2  0.000000D+00  0.100000D+01
      3  0.000000D+00  0.000000D+00  0.100000D+01
      4  0.000000D+00  0.000000D+00  0.000000D+00  0.100000D+01
      5  0.418191D+00  0.363502D+00 -0.212233D+00  0.000000D+00  0.100000D+01
      6 -0.363502D+00 -0.180916D+00  0.253964D+00  0.000000D+00  0.000000D+00
      7  0.212233D+00  0.253964D+00  0.105782D+00  0.000000D+00  0.000000D+00
      8  0.000000D+00  0.000000D+00  0.000000D+00  0.254061D+00  0.000000D+00
      9  0.846391D-01  0.110523D+00 -0.382034D-03  0.000000D+00  0.396101D+00
     10 -0.110523D+00 -0.138570D+00  0.594126D-03  0.000000D+00 -0.355765D+00
     11  0.382034D-03  0.594126D-03  0.333092D-01  0.000000D+00 -0.195974D+00
     12  0.000000D+00  0.000000D+00  0.000000D+00  0.333113D-01  0.000000D+00
     13  0.416121D-01  0.490741D-01  0.287429D-01  0.000000D+00  0.810676D-01
     14 -0.490741D-01 -0.527411D-01 -0.393103D-01  0.000000D+00 -0.537875D-01
     15 -0.287429D-01 -0.393103D-01 -0.864900D-02  0.000000D+00 -0.915831D-01
     16  0.000000D+00  0.000000D+00  0.000000D+00  0.143752D-01  0.000000D+00
     17  0.862706D-01  0.551960D-01  0.980127D-01  0.000000D+00  0.428279D-01
     18 -0.551960D-01 -0.801020D-02 -0.747485D-01  0.000000D+00  0.000000D+00
     19 -0.980127D-01 -0.747485D-01 -0.986481D-01  0.000000D+00 -0.584429D-01
     20  0.000000D+00  0.000000D+00  0.000000D+00  0.340845D-01  0.000000D+00
     21  0.398147D+00  0.000000D+00  0.407575D+00  0.000000D+00  0.862707D-01
     22  0.000000D+00  0.237410D+00  0.000000D+00  0.000000D+00  0.551950D-01
     23 -0.407575D+00  0.000000D+00 -0.331866D+00  0.000000D+00 -0.980133D-01
     24  0.000000D+00  0.000000D+00  0.000000D+00  0.237410D+00  0.000000D+00
     25  0.333994D-02  0.419336D-02 -0.203276D-02  0.000000D+00  0.460693D-01
     26  0.520724D+00 -0.425568D+00 -0.241947D+00  0.000000D+00  0.122081D+00
     27  0.121262D+00  0.818767D-01 -0.122434D+00  0.000000D+00  0.520189D+00
     28  0.632579D-02  0.913905D-02 -0.172452D-02  0.000000D+00  0.766371D-01
     29 -0.913905D-02 -0.130801D-01  0.278265D-02  0.000000D+00 -0.100826D+00
     30  0.172452D-02  0.278265D-02  0.114141D-02  0.000000D+00  0.000000D+00
     31  0.000000D+00  0.000000D+00  0.000000D+00  0.166649D-02  0.000000D+00
     32  0.207463D-02  0.271691D-02  0.155926D-02  0.000000D+00  0.622624D-02
     33 -0.271691D-02 -0.344846D-02 -0.225274D-02  0.000000D+00 -0.607896D-02
     34 -0.155926D-02 -0.225274D-02 -0.816083D-03  0.000000D+00 -0.684958D-02
     35  0.000000D+00  0.000000D+00  0.000000D+00  0.476789D-03  0.000000D+00
     36  0.126733D-01  0.593732D-02  0.159388D-01  0.000000D+00  0.493725D-02
     37  0.116094D+00 -0.615787D-01  0.127369D+00  0.000000D+00  0.129872D-01
     38  0.279191D-03  0.415846D-03  0.121063D-03  0.000000D+00  0.207463D-02
     39 -0.415846D-03 -0.620709D-03 -0.195609D-03  0.000000D+00 -0.271691D-02
     40 -0.121063D-03 -0.195609D-03 -0.574568D-05  0.000000D+00 -0.155926D-02
     41  0.000000D+00  0.000000D+00  0.000000D+00  0.512010D-04  0.000000D+00
     42  0.463427D-03  0.715545D-03  0.000000D+00  0.000000D+00  0.632565D-02
     43 -0.715545D-03 -0.111338D-02  0.000000D+00  0.000000D+00 -0.913886D-02
     44  0.000000D+00  0.000000D+00  0.898024D-04  0.000000D+00 -0.172448D-02
     45  0.000000D+00  0.000000D+00  0.000000D+00  0.898024D-04  0.000000D+00
     46  0.615270D-03  0.675946D-03  0.588250D-03  0.000000D+00  0.107651D-02
     47  0.303512D-04  0.440305D-04  0.148037D-04  0.000000D+00  0.216579D-03
     48  0.635625D-04  0.960250D-04 -0.887414D-05  0.000000D+00  0.106156D-02
     49  0.106406D-01  0.000000D+00  0.000000D+00  0.153962D-01  0.608681D-02
     50  0.000000D+00  0.300051D-02  0.000000D+00  0.000000D+00  0.283177D-02
     51  0.000000D+00  0.000000D+00  0.300051D-02  0.000000D+00 -0.165335D-02
     52 -0.153962D-01  0.000000D+00  0.000000D+00 -0.220658D-01 -0.833702D-02
     53  0.608681D-02  0.283177D-02 -0.165335D-02  0.833702D-02  0.106406D-01
     54 -0.283177D-02  0.125009D-03  0.858662D-03 -0.432980D-02  0.000000D+00
     55  0.165335D-02  0.858662D-03  0.109435D-02  0.252798D-02  0.000000D+00
     56 -0.833702D-02 -0.432980D-02  0.252798D-02 -0.111517D-01 -0.153962D-01
     57  0.197270D-02  0.170211D-02 -0.588352D-05  0.244797D-02  0.587161D-02
     58 -0.170211D-02 -0.116876D-02  0.559774D-05 -0.232906D-02 -0.285059D-02
     59  0.588352D-05  0.559774D-05  0.450655D-03  0.805067D-05 -0.157025D-02
     60 -0.244797D-02 -0.232906D-02  0.805067D-05 -0.289899D-02 -0.801512D-02
     61  0.114479D-02  0.945765D-03  0.553939D-03  0.136020D-02  0.190997D-02
     62 -0.945765D-03 -0.611785D-03 -0.502124D-03 -0.123297D-02 -0.840714D-03
     63 -0.553939D-03 -0.502124D-03 -0.485814D-04 -0.722153D-03 -0.143147D-02
     64 -0.136020D-02 -0.123297D-02 -0.722153D-03 -0.152773D-02 -0.236386D-02
     65  0.200107D-02  0.844446D-03  0.149950D-02  0.248609D-02  0.117091D-02
     66 -0.844446D-03  0.649280D-04 -0.697855D-03 -0.115700D-02  0.000000D+00
     67 -0.149950D-02 -0.697855D-03 -0.781271D-03 -0.205452D-02 -0.111699D-02
     68 -0.248609D-02 -0.115700D-02 -0.205452D-02 -0.294835D-02 -0.139367D-02
     69  0.589175D-02  0.000000D+00  0.325707D-02  0.804520D-02  0.200107D-02
     70  0.000000D+00  0.153817D-02  0.000000D+00  0.000000D+00  0.844432D-03
     71 -0.325707D-02  0.000000D+00 -0.471002D-03 -0.496281D-02 -0.149951D-02
     72 -0.804520D-02  0.000000D+00 -0.496281D-02 -0.107203D-01 -0.248609D-02
     73  0.191952D-03  0.195586D-03 -0.948116D-04  0.186240D-03  0.162263D-02
     74  0.777638D-02 -0.273020D-02 -0.155219D-02  0.101146D-01  0.322304D-02
     75  0.320857D-02  0.130117D-02 -0.194571D-02  0.382197D-02  0.777204D-02
     76  0.242508D-03  0.270326D-03 -0.510100D-04  0.257218D-03  0.183091D-02
     77 -0.270326D-03 -0.282734D-03  0.616177D-04 -0.310707D-03 -0.160627D-02
     78  0.510100D-04  0.616177D-04  0.321794D-04  0.586299D-04  0.000000D+00
     79 -0.257218D-03 -0.310707D-03  0.586299D-04 -0.251835D-03 -0.225823D-02
     80  0.916494D-04  0.957151D-04  0.549319D-04  0.910735D-04  0.239229D-03
     81 -0.957151D-04 -0.926302D-04 -0.617377D-04 -0.102357D-03 -0.180316D-03
     82 -0.549319D-04 -0.617377D-04 -0.204883D-04 -0.587438D-04 -0.203175D-03
     83 -0.910735D-04 -0.102357D-03 -0.587438D-04 -0.824497D-04 -0.253502D-03
     84  0.593149D-03  0.210716D-03  0.565669D-03  0.618942D-03  0.269125D-03
     85  0.311630D-02 -0.999331D-03  0.206701D-02  0.370228D-02  0.605107D-03
     86  0.149843D-04  0.185054D-04  0.538737D-05  0.133072D-04  0.916493D-04
     87 -0.185054D-04 -0.222788D-04 -0.707717D-05 -0.174811D-04 -0.957150D-04
     88 -0.538737D-05 -0.707717D-05  0.000000D+00 -0.508919D-05 -0.549319D-04
     89 -0.133072D-04 -0.174811D-04 -0.508919D-05 -0.105397D-04 -0.910734D-04
     90  0.238130D-04  0.302385D-04  0.000000D+00  0.217445D-04  0.242504D-03
     91 -0.302385D-04 -0.375776D-04  0.000000D+00 -0.294546D-04 -0.270321D-03
     92  0.000000D+00  0.000000D+00  0.338265D-05  0.000000D+00 -0.510090D-04
     93 -0.217445D-04 -0.294546D-04  0.000000D+00 -0.177982D-04 -0.257213D-03
     94  0.423933D-04  0.396057D-04  0.344673D-04  0.377133D-04  0.703482D-04
     95  0.257197D-05  0.328358D-05  0.110399D-05  0.197740D-05  0.162471D-04
     96  0.517193D-05  0.684111D-05  0.000000D+00  0.411977D-05  0.694683D-04
                6             7             8             9            10
      6  0.100000D+01
      7  0.000000D+00  0.100000D+01
      8  0.000000D+00  0.000000D+00  0.100000D+01
      9  0.355765D+00  0.195974D+00  0.000000D+00  0.100000D+01
     10 -0.199856D+00 -0.239946D+00  0.000000D+00  0.000000D+00  0.100000D+01
     11 -0.239946D+00  0.103561D+00  0.000000D+00  0.000000D+00  0.000000D+00
     12  0.000000D+00  0.000000D+00  0.235736D+00  0.000000D+00  0.000000D+00
     13  0.537875D-01  0.915831D-01  0.000000D+00  0.389948D+00  0.117580D-05
     14 -0.107884D-01 -0.722277D-01  0.000000D+00 -0.117580D-05  0.230728D+00
     15 -0.722277D-01 -0.913494D-01  0.000000D+00 -0.401898D+00 -0.164752D-05
     16  0.000000D+00  0.000000D+00  0.316316D-01  0.000000D+00  0.000000D+00
     17  0.000000D+00  0.584429D-01  0.000000D+00  0.810704D-01 -0.537887D-01
     18  0.148673D-01  0.000000D+00  0.000000D+00  0.537887D-01 -0.107874D-01
     19  0.000000D+00 -0.777017D-01  0.000000D+00 -0.915865D-01  0.722294D-01
     20  0.000000D+00  0.000000D+00  0.148673D-01  0.000000D+00  0.000000D+00
     21 -0.551950D-01  0.980133D-01  0.000000D+00  0.416123D-01 -0.490743D-01
     22 -0.800879D-02  0.747477D-01  0.000000D+00  0.490743D-01 -0.527412D-01
     23  0.747477D-01 -0.986495D-01  0.000000D+00 -0.287431D-01  0.393105D-01
     24  0.000000D+00  0.000000D+00  0.340845D-01  0.000000D+00  0.000000D+00
     25  0.541424D-01 -0.236809D-01  0.000000D+00  0.117112D+00  0.818180D-01
     26 -0.147808D+00  0.108759D-01  0.000000D+00  0.125287D-01 -0.166183D-01
     27  0.123245D-02 -0.489247D+00  0.000000D+00  0.117111D+00 -0.818167D-01
     28  0.100826D+00  0.000000D+00  0.000000D+00  0.396108D+00  0.355768D+00
     29 -0.127715D+00  0.000000D+00  0.000000D+00 -0.355768D+00 -0.199851D+00
     30  0.000000D+00  0.295730D-01  0.000000D+00  0.195978D+00  0.239950D+00
     31  0.000000D+00  0.000000D+00  0.295730D-01  0.000000D+00  0.000000D+00
     32  0.607896D-02  0.684958D-02  0.000000D+00  0.810675D-01  0.537874D-01
     33 -0.499051D-02 -0.746761D-02  0.000000D+00 -0.537874D-01 -0.107883D-01
     34 -0.746761D-02 -0.677733D-02  0.000000D+00 -0.915831D-01 -0.722276D-01
     35  0.000000D+00  0.000000D+00  0.163695D-02  0.000000D+00  0.000000D+00
     36  0.479566D-05  0.681342D-02  0.000000D+00  0.120610D-01 -0.585455D-02
     37 -0.109270D-01  0.135626D-01  0.000000D+00  0.479855D-02 -0.573066D-02
     38  0.271691D-02  0.155926D-02  0.000000D+00  0.416121D-01  0.490740D-01
     39 -0.344846D-02 -0.225274D-02  0.000000D+00 -0.490740D-01 -0.527410D-01
     40 -0.225274D-02 -0.816084D-03  0.000000D+00 -0.287429D-01 -0.393103D-01
     41  0.000000D+00  0.000000D+00  0.476788D-03  0.000000D+00  0.000000D+00
     42  0.913886D-02  0.172448D-02  0.000000D+00  0.846401D-01  0.110524D+00
     43 -0.130798D-01 -0.278258D-02  0.000000D+00 -0.110524D+00 -0.138571D+00
     44 -0.278258D-02  0.114138D-02  0.000000D+00 -0.382039D-03 -0.594133D-03
     45  0.000000D+00  0.000000D+00  0.166645D-02  0.000000D+00  0.000000D+00
     46  0.832971D-03  0.130394D-02  0.000000D+00  0.120608D-01  0.585443D-02
     47  0.279621D-03  0.160170D-03  0.000000D+00  0.479835D-02  0.573044D-02
     48  0.152544D-02  0.518003D-04  0.000000D+00  0.125287D-01  0.166182D-01
     49 -0.283177D-02  0.165335D-02  0.833702D-02  0.197270D-02 -0.170211D-02
     50  0.125009D-03  0.858662D-03  0.432980D-02  0.170211D-02 -0.116876D-02
     51  0.858662D-03  0.109435D-02 -0.252798D-02 -0.588352D-05  0.559774D-05
     52  0.432980D-02 -0.252798D-02 -0.111517D-01 -0.244797D-02  0.232906D-02
     53  0.000000D+00  0.000000D+00  0.153962D-01  0.587161D-02 -0.285059D-02
     54  0.300051D-02  0.000000D+00  0.000000D+00  0.285059D-02 -0.119432D-04
     55  0.000000D+00  0.300051D-02  0.000000D+00  0.157025D-02 -0.850621D-03
     56  0.000000D+00  0.000000D+00 -0.220658D-01 -0.801512D-02  0.434188D-02
     57  0.285059D-02  0.157025D-02  0.801512D-02  0.106406D-01  0.000000D+00
     58 -0.119432D-04 -0.850621D-03 -0.434188D-02  0.000000D+00  0.300051D-02
     59 -0.850621D-03  0.106368D-02 -0.239173D-02  0.000000D+00  0.000000D+00
     60 -0.434188D-02 -0.239173D-02 -0.106760D-01 -0.153962D-01  0.000000D+00
     61  0.840714D-03  0.143147D-02  0.236386D-02  0.581079D-02  0.000000D+00
     62  0.267565D-04 -0.694575D-03 -0.114699D-02  0.000000D+00  0.151438D-02
     63 -0.694575D-03 -0.747956D-03 -0.195296D-02 -0.324623D-02  0.000000D+00
     64 -0.114699D-02 -0.195296D-02 -0.279035D-02 -0.792436D-02  0.000000D+00
     65  0.000000D+00  0.111699D-02  0.139367D-02  0.191002D-02 -0.840721D-03
     66  0.251765D-03  0.000000D+00  0.000000D+00  0.840721D-03  0.267726D-04
     67  0.000000D+00 -0.917609D-03 -0.145903D-02 -0.143150D-02  0.694581D-03
     68  0.000000D+00 -0.145903D-02 -0.156868D-02 -0.236393D-02  0.114700D-02
     69 -0.844432D-03  0.149951D-02  0.248609D-02  0.114480D-02 -0.945767D-03
     70  0.649412D-04  0.697847D-03  0.115699D-02  0.945767D-03 -0.611785D-03
     71  0.697847D-03 -0.781285D-03 -0.205453D-02 -0.553942D-03  0.502126D-03
     72  0.115699D-02 -0.205453D-02 -0.294835D-02 -0.136020D-02  0.123297D-02
     73  0.129600D-02 -0.566849D-03  0.182402D-02  0.313461D-02  0.132224D-02
     74 -0.234128D-02  0.172275D-03  0.384076D-02  0.587615D-03 -0.591472D-03
     75  0.791342D-05 -0.314140D-02  0.101084D-01  0.313459D-02 -0.132223D-02
     76  0.160627D-02  0.000000D+00  0.225823D-02  0.587168D-02  0.285059D-02
     77 -0.113815D-02  0.000000D+00 -0.218303D-02 -0.285059D-02 -0.119040D-04
     78  0.000000D+00  0.414630D-03  0.000000D+00  0.157027D-02  0.850621D-03
     79 -0.218303D-02  0.000000D+00 -0.265445D-02 -0.801523D-02 -0.434188D-02
     80  0.180316D-03  0.203175D-03  0.253502D-03  0.190996D-02  0.840712D-03
     81 -0.104114D-03 -0.165934D-03 -0.207036D-03 -0.840712D-03  0.267569D-04
     82 -0.165934D-03 -0.143819D-03 -0.233282D-03 -0.143147D-02 -0.694575D-03
     83 -0.207036D-03 -0.233282D-03 -0.247915D-03 -0.236386D-02 -0.114699D-02
     84  0.000000D+00  0.296556D-03  0.266629D-03  0.569605D-03 -0.210339D-03
     85 -0.385434D-03  0.478402D-03  0.632289D-03  0.262623D-03 -0.250757D-03
     86  0.957150D-04  0.549319D-04  0.910734D-04  0.114479D-02  0.945764D-03
     87 -0.926301D-04 -0.617376D-04 -0.102357D-03 -0.945764D-03 -0.611784D-03
     88 -0.617376D-04 -0.204883D-04 -0.587437D-04 -0.553939D-03 -0.502124D-03
     89 -0.102357D-03 -0.587437D-04 -0.824496D-04 -0.136020D-02 -0.123296D-02
     90  0.270321D-03  0.510090D-04  0.257213D-03  0.197271D-02  0.170212D-02
     91 -0.282730D-03 -0.616165D-04 -0.310702D-03 -0.170212D-02 -0.116876D-02
     92 -0.616165D-04  0.321787D-04 -0.586287D-04 -0.588357D-05 -0.559778D-05
     93 -0.310702D-03 -0.586287D-04 -0.251829D-03 -0.244799D-02 -0.232908D-02
     94  0.457332D-04  0.715909D-04  0.643661D-04  0.569598D-03  0.210335D-03
     95  0.181364D-04  0.103887D-04  0.137304D-04  0.262614D-03  0.250749D-03
     96  0.838977D-04  0.284896D-05  0.635160D-04  0.587612D-03  0.591469D-03
               11            12            13            14            15
     11  0.100000D+01
     12  0.000000D+00  0.100000D+01
     13  0.401898D+00  0.000000D+00  0.100000D+01
     14 -0.164752D-05  0.000000D+00  0.000000D+00  0.100000D+01
     15 -0.332405D+00  0.000000D+00  0.000000D+00  0.000000D+00  0.100000D+01
     16  0.000000D+00  0.230728D+00  0.000000D+00  0.000000D+00  0.000000D+00
     17  0.915865D-01  0.000000D+00  0.396110D+00 -0.355770D+00  0.195976D+00
     18  0.722294D-01  0.000000D+00  0.355770D+00 -0.199853D+00  0.239949D+00
     19 -0.913529D-01  0.000000D+00 -0.195976D+00  0.239949D+00  0.103567D+00
     20  0.000000D+00  0.316329D-01  0.000000D+00  0.000000D+00  0.000000D+00
     21  0.287431D-01  0.000000D+00  0.846385D-01 -0.110522D+00 -0.381940D-03
     22  0.393105D-01  0.000000D+00  0.110522D+00 -0.138569D+00 -0.593980D-03
     23 -0.864913D-02  0.000000D+00  0.381940D-03 -0.593980D-03  0.333089D-01
     24  0.000000D+00  0.143753D-01  0.000000D+00  0.000000D+00  0.000000D+00
     25 -0.116819D+00  0.000000D+00  0.120610D-01  0.585456D-02 -0.151175D-01
     26 -0.260071D-02  0.000000D+00  0.479844D-02 -0.573053D-02 -0.332887D-02
     27 -0.116818D+00  0.000000D+00  0.120608D-01 -0.585444D-02 -0.151172D-01
     28 -0.195978D+00  0.000000D+00  0.810694D-01  0.537878D-01 -0.915855D-01
     29  0.239950D+00  0.000000D+00 -0.537878D-01 -0.107871D-01  0.722284D-01
     30  0.103563D+00  0.000000D+00  0.915855D-01  0.722284D-01 -0.913522D-01
     31  0.000000D+00  0.235741D+00  0.000000D+00  0.000000D+00  0.000000D+00
     32  0.915831D-01  0.000000D+00  0.396101D+00  0.355765D+00  0.195974D+00
     33 -0.722276D-01  0.000000D+00 -0.355765D+00 -0.199855D+00 -0.239946D+00
     34 -0.913494D-01  0.000000D+00 -0.195974D+00 -0.239946D+00  0.103561D+00
     35  0.000000D+00  0.316315D-01  0.000000D+00  0.000000D+00  0.000000D+00
     36  0.151175D-01  0.000000D+00  0.117112D+00 -0.818178D-01  0.116819D+00
     37  0.332896D-02  0.000000D+00  0.125289D-01 -0.166185D-01  0.260075D-02
     38  0.287429D-01  0.000000D+00  0.846392D-01  0.110523D+00 -0.381944D-03
     39 -0.393103D-01  0.000000D+00 -0.110523D+00 -0.138570D+00  0.593985D-03
     40 -0.864905D-02  0.000000D+00  0.381944D-03  0.593985D-03  0.333093D-01
     41  0.000000D+00  0.143752D-01  0.000000D+00  0.000000D+00  0.000000D+00
     42  0.382039D-03  0.000000D+00  0.416131D-01  0.490752D-01 -0.287437D-01
     43 -0.594133D-03  0.000000D+00 -0.490752D-01 -0.527420D-01  0.393113D-01
     44  0.333097D-01  0.000000D+00  0.287437D-01  0.393113D-01 -0.864931D-02
     45  0.000000D+00  0.333117D-01  0.000000D+00  0.000000D+00  0.000000D+00
     46  0.151173D-01  0.000000D+00  0.117112D+00  0.818169D-01  0.116820D+00
     47  0.332881D-02  0.000000D+00  0.125285D-01  0.166180D-01  0.260066D-02
     48 -0.260069D-02  0.000000D+00  0.479848D-02  0.573058D-02 -0.332890D-02
     49  0.588352D-05  0.244797D-02  0.114479D-02 -0.945765D-03 -0.553939D-03
     50  0.559774D-05  0.232906D-02  0.945765D-03 -0.611785D-03 -0.502124D-03
     51  0.450655D-03 -0.805067D-05  0.553939D-03 -0.502124D-03 -0.485814D-04
     52 -0.805067D-05 -0.289899D-02 -0.136020D-02  0.123297D-02  0.722153D-03
     53 -0.157025D-02  0.801512D-02  0.190997D-02 -0.840714D-03 -0.143147D-02
     54 -0.850621D-03  0.434188D-02  0.840714D-03  0.267565D-04 -0.694575D-03
     55  0.106368D-02  0.239173D-02  0.143147D-02 -0.694575D-03 -0.747956D-03
     56  0.239173D-02 -0.106760D-01 -0.236386D-02  0.114699D-02  0.195296D-02
     57  0.000000D+00  0.153962D-01  0.581079D-02  0.000000D+00 -0.324623D-02
     58  0.000000D+00  0.000000D+00  0.000000D+00  0.151438D-02  0.000000D+00
     59  0.300051D-02  0.000000D+00  0.324623D-02  0.000000D+00 -0.508914D-03
     60  0.000000D+00 -0.220658D-01 -0.792436D-02  0.000000D+00  0.493904D-02
     61  0.324623D-02  0.792436D-02  0.106406D-01  0.000000D+00  0.000000D+00
     62  0.000000D+00  0.000000D+00  0.000000D+00  0.300051D-02  0.000000D+00
     63 -0.508914D-03 -0.493904D-02  0.000000D+00  0.000000D+00  0.300051D-02
     64 -0.493904D-02 -0.105423D-01 -0.153962D-01  0.000000D+00  0.000000D+00
     65  0.143150D-02  0.236393D-02  0.587170D-02 -0.285060D-02  0.157025D-02
     66  0.694581D-03  0.114700D-02  0.285060D-02 -0.119059D-04  0.850614D-03
     67 -0.747970D-03 -0.195302D-02 -0.157025D-02  0.850614D-03  0.106371D-02
     68 -0.195302D-02 -0.279044D-02 -0.801525D-02  0.434190D-02 -0.239174D-02
     69  0.553942D-03  0.136020D-02  0.197268D-02 -0.170210D-02 -0.588209D-05
     70  0.502126D-03  0.123297D-02  0.170210D-02 -0.116875D-02 -0.559638D-05
     71 -0.485825D-04 -0.722157D-03  0.588209D-05 -0.559638D-05  0.450652D-03
     72 -0.722157D-03 -0.152774D-02 -0.244796D-02  0.232905D-02  0.804870D-05
     73 -0.188789D-02  0.372601D-02  0.569606D-03  0.210339D-03 -0.543133D-03
     74 -0.925632D-04  0.612772D-03  0.262618D-03 -0.250752D-03 -0.145662D-03
     75 -0.188789D-02  0.372598D-02  0.569596D-03 -0.210336D-03 -0.543124D-03
     76 -0.157027D-02  0.801523D-02  0.191000D-02  0.840712D-03 -0.143150D-02
     77  0.850621D-03 -0.434188D-02 -0.840712D-03  0.267729D-04  0.694575D-03
     78  0.106370D-02  0.239176D-02  0.143150D-02  0.694575D-03 -0.747971D-03
     79  0.239176D-02 -0.106762D-01 -0.236391D-02 -0.114699D-02  0.195300D-02
     80  0.143147D-02  0.236386D-02  0.587161D-02  0.285058D-02  0.157025D-02
     81 -0.694575D-03 -0.114699D-02 -0.285058D-02 -0.119418D-04 -0.850621D-03
     82 -0.747957D-03 -0.195296D-02 -0.157025D-02 -0.850621D-03  0.106368D-02
     83 -0.195296D-02 -0.279035D-02 -0.801512D-02 -0.434187D-02 -0.239173D-02
     84  0.543132D-03  0.592724D-03  0.313461D-02 -0.132224D-02  0.188789D-02
     85  0.145665D-03  0.259788D-03  0.587620D-03 -0.591476D-03  0.925643D-04
     86  0.553939D-03  0.136020D-02  0.197270D-02  0.170211D-02 -0.588213D-05
     87 -0.502124D-03 -0.123296D-02 -0.170211D-02 -0.116876D-02  0.559641D-05
     88 -0.485822D-04 -0.722153D-03  0.588213D-05  0.559641D-05  0.450655D-03
     89 -0.722153D-03 -0.152773D-02 -0.244797D-02 -0.232907D-02  0.804876D-05
     90  0.588357D-05  0.244799D-02  0.114481D-02  0.945779D-03 -0.553950D-03
     91 -0.559778D-05 -0.232908D-02 -0.945779D-03 -0.611788D-03  0.502132D-03
     92  0.450659D-03 -0.805075D-05  0.553950D-03  0.502132D-03 -0.485827D-04
     93 -0.805075D-05 -0.289901D-02 -0.136022D-02 -0.123299D-02  0.722169D-03
     94  0.543127D-03  0.592717D-03  0.313461D-02  0.132223D-02  0.188790D-02
     95  0.145660D-03  0.259778D-03  0.587606D-03  0.591464D-03  0.925619D-04
     96 -0.925627D-04  0.612768D-03  0.262619D-03  0.250754D-03 -0.145663D-03
               16            17            18            19            20
     16  0.100000D+01
     17  0.000000D+00  0.100000D+01
     18  0.000000D+00  0.000000D+00  0.100000D+01
     19  0.000000D+00  0.000000D+00  0.000000D+00  0.100000D+01
     20  0.235743D+00  0.000000D+00  0.000000D+00  0.000000D+00  0.100000D+01
     21  0.000000D+00  0.418185D+00 -0.363502D+00 -0.212226D+00  0.000000D+00
     22  0.000000D+00  0.363502D+00 -0.180925D+00 -0.253958D+00  0.000000D+00
     23  0.000000D+00  0.212226D+00 -0.253958D+00  0.105785D+00  0.000000D+00
     24  0.333110D-01  0.000000D+00  0.000000D+00  0.000000D+00  0.254056D+00
     25  0.000000D+00  0.107656D-02  0.833011D-03 -0.130400D-02  0.000000D+00
     26  0.000000D+00  0.129869D-01 -0.109269D-01 -0.135622D-01  0.000000D+00
     27  0.000000D+00  0.493725D-02  0.476065D-05 -0.681342D-02  0.000000D+00
     28  0.000000D+00  0.622670D-02  0.607935D-02 -0.685011D-02  0.000000D+00
     29  0.000000D+00 -0.607935D-02 -0.499074D-02  0.746813D-02  0.000000D+00
     30  0.000000D+00  0.685011D-02  0.746813D-02 -0.677788D-02  0.000000D+00
     31  0.316324D-01  0.000000D+00  0.000000D+00  0.000000D+00  0.163708D-02
     32  0.000000D+00  0.766371D-01  0.100826D+00  0.000000D+00  0.000000D+00
     33  0.000000D+00 -0.100826D+00 -0.127715D+00  0.000000D+00  0.000000D+00
     34  0.000000D+00  0.000000D+00  0.000000D+00  0.295730D-01  0.000000D+00
     35  0.235736D+00  0.000000D+00  0.000000D+00  0.000000D+00  0.295730D-01
     36  0.000000D+00  0.520189D+00  0.122346D-02  0.489247D+00  0.000000D+00
     37  0.000000D+00  0.122080D+00 -0.147806D+00 -0.108750D-01  0.000000D+00
     38  0.000000D+00  0.632582D-02  0.913909D-02 -0.172450D-02  0.000000D+00
     39  0.000000D+00 -0.913909D-02 -0.130801D-01  0.278262D-02  0.000000D+00
     40  0.000000D+00  0.172450D-02  0.278262D-02  0.114143D-02  0.000000D+00
     41  0.333113D-01  0.000000D+00  0.000000D+00  0.000000D+00  0.166650D-02
     42  0.000000D+00  0.207478D-02  0.271710D-02 -0.155938D-02  0.000000D+00
     43  0.000000D+00 -0.271710D-02 -0.344869D-02  0.225290D-02  0.000000D+00
     44  0.000000D+00  0.155938D-02  0.225290D-02 -0.816142D-03  0.000000D+00
     45  0.143756D-01  0.000000D+00  0.000000D+00  0.000000D+00  0.476827D-03
     46  0.000000D+00  0.460708D-01  0.541439D-01  0.236823D-01  0.000000D+00
     47  0.000000D+00  0.106158D-02  0.152548D-02 -0.517983D-04  0.000000D+00
     48  0.000000D+00  0.216594D-03  0.279641D-03 -0.160181D-03  0.000000D+00
     49  0.136020D-02  0.200107D-02 -0.844446D-03 -0.149950D-02  0.248609D-02
     50  0.123297D-02  0.844446D-03  0.649280D-04 -0.697855D-03  0.115700D-02
     51  0.722153D-03  0.149950D-02 -0.697855D-03 -0.781271D-03  0.205452D-02
     52 -0.152773D-02 -0.248609D-02  0.115700D-02  0.205452D-02 -0.294835D-02
     53  0.236386D-02  0.117091D-02  0.000000D+00 -0.111699D-02  0.139367D-02
     54  0.114699D-02  0.000000D+00  0.251765D-03  0.000000D+00  0.000000D+00
     55  0.195296D-02  0.111699D-02  0.000000D+00 -0.917609D-03  0.145903D-02
     56 -0.279035D-02 -0.139367D-02  0.000000D+00  0.145903D-02 -0.156868D-02
     57  0.792436D-02  0.191002D-02  0.840721D-03 -0.143150D-02  0.236393D-02
     58  0.000000D+00 -0.840721D-03  0.267726D-04  0.694581D-03 -0.114700D-02
     59  0.493904D-02  0.143150D-02  0.694581D-03 -0.747970D-03  0.195302D-02
     60 -0.105423D-01 -0.236393D-02 -0.114700D-02  0.195302D-02 -0.279044D-02
     61  0.153962D-01  0.587170D-02  0.285060D-02 -0.157025D-02  0.801525D-02
     62  0.000000D+00 -0.285060D-02 -0.119059D-04  0.850614D-03 -0.434190D-02
     63  0.000000D+00  0.157025D-02  0.850614D-03  0.106371D-02  0.239174D-02
     64 -0.220658D-01 -0.801525D-02 -0.434190D-02  0.239174D-02 -0.106762D-01
     65  0.801525D-02  0.106406D-01  0.000000D+00  0.000000D+00  0.153962D-01
     66  0.434190D-02  0.000000D+00  0.300051D-02  0.000000D+00  0.000000D+00
     67 -0.239174D-02  0.000000D+00  0.000000D+00  0.300051D-02  0.000000D+00
     68 -0.106762D-01 -0.153962D-01  0.000000D+00  0.000000D+00 -0.220658D-01
     69  0.244796D-02  0.608675D-02 -0.283179D-02 -0.165331D-02  0.833693D-02
     70  0.232905D-02  0.283179D-02  0.124960D-03 -0.858653D-03  0.432983D-02
     71  0.804870D-05  0.165331D-02 -0.858653D-03  0.109435D-02  0.252791D-02
     72 -0.289897D-02 -0.833693D-02  0.432983D-02  0.252791D-02 -0.111515D-01
     73  0.592725D-03  0.703512D-04  0.457351D-04 -0.715938D-04  0.643690D-04
     74  0.259782D-03  0.605097D-03 -0.385433D-03 -0.478392D-03  0.632277D-03
     75  0.592714D-03  0.269125D-03  0.000000D+00 -0.296556D-03  0.266629D-03
     76  0.236391D-02  0.239244D-03  0.180326D-03 -0.203188D-03  0.253519D-03
     77 -0.114699D-02 -0.180326D-03 -0.104117D-03  0.165943D-03 -0.207048D-03
     78  0.195300D-02  0.203188D-03  0.165943D-03 -0.143828D-03  0.233299D-03
     79 -0.279040D-02 -0.253519D-03 -0.207048D-03  0.233299D-03 -0.247933D-03
     80  0.801512D-02  0.183091D-02  0.160627D-02  0.000000D+00  0.225823D-02
     81 -0.434187D-02 -0.160627D-02 -0.113815D-02  0.000000D+00 -0.218303D-02
     82 -0.239173D-02  0.000000D+00  0.000000D+00  0.414630D-03  0.000000D+00
     83 -0.106760D-01 -0.225823D-02 -0.218303D-02  0.000000D+00 -0.265445D-02
     84  0.372600D-02  0.777204D-02  0.785566D-05  0.314140D-02  0.101084D-01
     85  0.612778D-03  0.322301D-02 -0.234127D-02 -0.172262D-03  0.384072D-02
     86  0.244797D-02  0.242509D-03  0.270327D-03 -0.510094D-04  0.257219D-03
     87 -0.232907D-02 -0.270327D-03 -0.282736D-03  0.616170D-04 -0.310709D-03
     88  0.804876D-05  0.510094D-04  0.616170D-04  0.321799D-04  0.586292D-04
     89 -0.289899D-02 -0.257219D-03 -0.310709D-03  0.586292D-04 -0.251836D-03
     90  0.136022D-02  0.916552D-04  0.957208D-04 -0.549353D-04  0.910796D-04
     91 -0.123299D-02 -0.957208D-04 -0.926351D-04  0.617413D-04 -0.102364D-03
     92  0.722169D-03  0.549353D-04  0.617413D-04 -0.204895D-04  0.587477D-04
     93 -0.152777D-02 -0.910796D-04 -0.102364D-03  0.587477D-04 -0.824557D-04
     94  0.372600D-02  0.162267D-02  0.129602D-02  0.566875D-03  0.182407D-02
     95  0.612762D-03  0.694697D-04  0.838993D-04 -0.284884D-05  0.635173D-04
     96  0.259784D-03  0.162482D-04  0.181375D-04 -0.103894D-04  0.137313D-04
               21            22            23            24            25
     21  0.100000D+01
     22  0.000000D+00  0.100000D+01
     23  0.000000D+00  0.000000D+00  0.100000D+01
     24  0.000000D+00  0.000000D+00  0.000000D+00  0.100000D+01
     25  0.615268D-03  0.675945D-03 -0.588246D-03  0.000000D+00  0.100000D+01
     26  0.116093D+00 -0.615788D-01 -0.127368D+00  0.000000D+00  0.880750D-03
     27  0.126731D-01  0.593719D-02 -0.159385D-01  0.000000D+00  0.615645D-01
     28  0.207471D-02  0.271701D-02 -0.155933D-02  0.000000D+00  0.520195D+00
     29 -0.271701D-02 -0.344858D-02  0.225283D-02  0.000000D+00 -0.122347D-02
     30  0.155933D-02  0.225283D-02 -0.816123D-03  0.000000D+00 -0.489250D+00
     31  0.000000D+00  0.000000D+00  0.000000D+00  0.476810D-03  0.000000D+00
     32  0.632552D-02  0.913867D-02  0.172444D-02  0.000000D+00  0.493725D-02
     33 -0.913867D-02 -0.130796D-01 -0.278252D-02  0.000000D+00 -0.479566D-05
     34 -0.172444D-02 -0.278252D-02  0.114136D-02  0.000000D+00 -0.681342D-02
     35  0.000000D+00  0.000000D+00  0.000000D+00  0.166641D-02  0.000000D+00
     36  0.121264D+00  0.818782D-01  0.122436D+00  0.000000D+00  0.164370D-03
     37  0.520729D+00 -0.425570D+00  0.241950D+00  0.000000D+00  0.701853D-04
     38  0.463416D-03  0.715527D-03  0.000000D+00  0.000000D+00  0.126733D-01
     39 -0.715527D-03 -0.111335D-02  0.000000D+00  0.000000D+00 -0.593731D-02
     40  0.000000D+00  0.000000D+00  0.898000D-04  0.000000D+00 -0.159387D-01
     41  0.000000D+00  0.000000D+00  0.000000D+00  0.898000D-04  0.000000D+00
     42  0.279197D-03  0.415856D-03 -0.121066D-03  0.000000D+00  0.121265D+00
     43 -0.415856D-03 -0.620724D-03  0.195614D-03  0.000000D+00 -0.818782D-01
     44  0.121066D-03  0.195614D-03 -0.574589D-05  0.000000D+00 -0.122437D+00
     45  0.000000D+00  0.000000D+00  0.000000D+00  0.512024D-04  0.000000D+00
     46  0.333997D-02  0.419340D-02  0.203279D-02  0.000000D+00  0.585154D-03
     47  0.635610D-04  0.960227D-04  0.887390D-05  0.000000D+00  0.233178D-02
     48  0.303519D-04  0.440315D-04 -0.148041D-04  0.000000D+00  0.627495D-01
     49  0.589175D-02  0.000000D+00 -0.325707D-02  0.804520D-02  0.191952D-03
     50  0.000000D+00  0.153817D-02  0.000000D+00  0.000000D+00  0.195586D-03
     51  0.325707D-02  0.000000D+00 -0.471002D-03  0.496281D-02 -0.948116D-04
     52 -0.804520D-02  0.000000D+00  0.496281D-02 -0.107203D-01 -0.186240D-03
     53  0.200107D-02  0.844432D-03 -0.149951D-02  0.248609D-02  0.162263D-02
     54 -0.844432D-03  0.649412D-04  0.697847D-03 -0.115699D-02  0.129600D-02
     55  0.149951D-02  0.697847D-03 -0.781285D-03  0.205453D-02 -0.566849D-03
     56 -0.248609D-02 -0.115699D-02  0.205453D-02 -0.294835D-02 -0.182402D-02
     57  0.114480D-02  0.945767D-03 -0.553942D-03  0.136020D-02  0.313461D-02
     58 -0.945767D-03 -0.611785D-03  0.502126D-03 -0.123297D-02  0.132224D-02
     59  0.553942D-03  0.502126D-03 -0.485825D-04  0.722157D-03 -0.188789D-02
     60 -0.136020D-02 -0.123297D-02  0.722157D-03 -0.152774D-02 -0.372601D-02
     61  0.197268D-02  0.170210D-02  0.588209D-05  0.244796D-02  0.569606D-03
     62 -0.170210D-02 -0.116875D-02 -0.559638D-05 -0.232905D-02  0.210339D-03
     63 -0.588209D-05 -0.559638D-05  0.450652D-03 -0.804870D-05 -0.543133D-03
     64 -0.244796D-02 -0.232905D-02 -0.804870D-05 -0.289897D-02 -0.592725D-03
     65  0.608675D-02  0.283179D-02  0.165331D-02  0.833693D-02  0.703512D-04
     66 -0.283179D-02  0.124960D-03 -0.858653D-03 -0.432983D-02  0.457351D-04
     67 -0.165331D-02 -0.858653D-03  0.109435D-02 -0.252791D-02 -0.715938D-04
     68 -0.833693D-02 -0.432983D-02 -0.252791D-02 -0.111515D-01 -0.643690D-04
     69  0.106406D-01  0.000000D+00  0.000000D+00  0.153962D-01  0.423931D-04
     70  0.000000D+00  0.300051D-02  0.000000D+00  0.000000D+00  0.396057D-04
     71  0.000000D+00  0.000000D+00  0.300051D-02  0.000000D+00 -0.344671D-04
     72 -0.153962D-01  0.000000D+00  0.000000D+00 -0.220658D-01 -0.377131D-04
     73  0.423931D-04  0.396057D-04 -0.344671D-04  0.377131D-04  0.106505D-01
     74  0.311628D-02 -0.999335D-03 -0.206699D-02  0.370226D-02  0.723546D-04
     75  0.593140D-03  0.210712D-03 -0.565661D-03  0.618931D-03  0.238575D-02
     76  0.916526D-04  0.957181D-04 -0.549339D-04  0.910768D-04  0.777209D-02
     77 -0.957181D-04 -0.926326D-04  0.617398D-04 -0.102361D-03 -0.785571D-05
     78  0.549339D-04  0.617398D-04 -0.204892D-04  0.587461D-04 -0.314139D-02
     79 -0.910768D-04 -0.102361D-03  0.587461D-04 -0.824530D-04 -0.101085D-01
     80  0.242500D-03  0.270317D-03  0.510080D-04  0.257208D-03  0.269125D-03
     81 -0.270317D-03 -0.282726D-03 -0.616154D-04 -0.310696D-03  0.000000D+00
     82 -0.510080D-04 -0.616154D-04  0.321781D-04 -0.586274D-04 -0.296556D-03
     83 -0.257208D-03 -0.310696D-03 -0.586274D-04 -0.251824D-03 -0.266629D-03
     84  0.320861D-02  0.130119D-02  0.194572D-02  0.382201D-02  0.157830D-04
     85  0.777642D-02 -0.273019D-02  0.155220D-02  0.101147D-01  0.718137D-05
     86  0.238125D-04  0.302379D-04  0.000000D+00  0.217440D-04  0.593148D-03
     87 -0.302379D-04 -0.375768D-04  0.000000D+00 -0.294539D-04 -0.210716D-03
     88  0.000000D+00  0.000000D+00  0.338257D-05  0.000000D+00 -0.565668D-03
     89 -0.217440D-04 -0.294539D-04  0.000000D+00 -0.177977D-04 -0.618941D-03
     90  0.149846D-04  0.185058D-04 -0.538750D-05  0.133075D-04  0.320862D-02
     91 -0.185058D-04 -0.222793D-04  0.707733D-05 -0.174815D-04 -0.130118D-02
     92  0.538750D-05  0.707733D-05  0.000000D+00  0.508931D-05 -0.194573D-02
     93 -0.133075D-04 -0.174815D-04  0.508931D-05 -0.105400D-04 -0.382203D-02
     94  0.191954D-03  0.195587D-03  0.948130D-04  0.186242D-03  0.501284D-04
     95  0.517181D-05  0.684096D-05  0.000000D+00  0.411967D-05  0.171291D-03
     96  0.257202D-05  0.328365D-05 -0.110402D-05  0.197744D-05  0.241752D-02
               26            27            28            29            30
     26  0.100000D+01
     27  0.627490D-01  0.100000D+01
     28  0.106161D-02  0.460704D-01  0.100000D+01
     29 -0.152551D-02 -0.541436D-01  0.000000D+00  0.100000D+01
     30  0.518028D-04 -0.236818D-01  0.000000D+00  0.000000D+00  0.100000D+01
     31  0.000000D+00  0.000000D+00  0.000000D+00  0.000000D+00  0.000000D+00
     32  0.216583D-03  0.107649D-02  0.428270D-01  0.000000D+00  0.584418D-01
     33 -0.279627D-03 -0.832964D-03  0.000000D+00  0.148670D-01  0.000000D+00
     34 -0.160173D-03 -0.130392D-02 -0.584418D-01  0.000000D+00 -0.777004D-01
     35  0.000000D+00  0.000000D+00  0.000000D+00  0.000000D+00  0.000000D+00
     36  0.233181D-02  0.585154D-03  0.107654D-02 -0.832994D-03  0.130397D-02
     37  0.608514D-01  0.233179D-02  0.216596D-03 -0.279643D-03  0.160184D-03
     38  0.303519D-04  0.615259D-03  0.862692D-01  0.551949D-01  0.980113D-01
     39 -0.440315D-04 -0.675935D-03 -0.551949D-01 -0.800992D-02 -0.747472D-01
     40 -0.148041D-04 -0.588239D-03 -0.980113D-01 -0.747472D-01 -0.986471D-01
     41  0.000000D+00  0.000000D+00  0.000000D+00  0.000000D+00  0.000000D+00
     42  0.635641D-04  0.333997D-02  0.418187D+00  0.363501D+00  0.212230D+00
     43 -0.960273D-04 -0.419339D-02 -0.363501D+00 -0.180920D+00 -0.253962D+00
     44 -0.887437D-05 -0.203279D-02 -0.212230D+00 -0.253962D+00  0.105781D+00
     45  0.000000D+00  0.000000D+00  0.000000D+00  0.000000D+00  0.000000D+00
     46  0.701843D-04  0.164365D-03  0.493715D-02 -0.477805D-05  0.681329D-02
     47  0.333018D-05  0.701818D-04  0.129865D-01  0.109266D-01  0.135619D-01
     48  0.101296D-04  0.880745D-03  0.122077D+00  0.147803D+00  0.108755D-01
     49  0.777638D-02  0.320857D-02  0.242508D-03 -0.270326D-03  0.510100D-04
     50 -0.273020D-02  0.130117D-02  0.270326D-03 -0.282734D-03  0.616177D-04
     51 -0.155219D-02 -0.194571D-02 -0.510100D-04  0.616177D-04  0.321794D-04
     52 -0.101146D-01 -0.382197D-02 -0.257218D-03  0.310707D-03 -0.586299D-04
     53  0.322304D-02  0.777204D-02  0.183091D-02 -0.160627D-02  0.000000D+00
     54 -0.234128D-02  0.791342D-05  0.160627D-02 -0.113815D-02  0.000000D+00
     55  0.172275D-03 -0.314140D-02  0.000000D+00  0.000000D+00  0.414630D-03
     56 -0.384076D-02 -0.101084D-01 -0.225823D-02  0.218303D-02  0.000000D+00
     57  0.587615D-03  0.313459D-02  0.587168D-02 -0.285059D-02  0.157027D-02
     58 -0.591472D-03 -0.132223D-02  0.285059D-02 -0.119040D-04  0.850621D-03
     59 -0.925632D-04 -0.188789D-02 -0.157027D-02  0.850621D-03  0.106370D-02
     60 -0.612772D-03 -0.372598D-02 -0.801523D-02  0.434188D-02 -0.239176D-02
     61  0.262618D-03  0.569596D-03  0.191000D-02 -0.840712D-03  0.143150D-02
     62 -0.250752D-03 -0.210336D-03  0.840712D-03  0.267729D-04  0.694575D-03
     63 -0.145662D-03 -0.543124D-03 -0.143150D-02  0.694575D-03 -0.747971D-03
     64 -0.259782D-03 -0.592714D-03 -0.236391D-02  0.114699D-02 -0.195300D-02
     65  0.605097D-03  0.269125D-03  0.239244D-03 -0.180326D-03  0.203188D-03
     66 -0.385433D-03  0.000000D+00  0.180326D-03 -0.104117D-03  0.165943D-03
     67 -0.478392D-03 -0.296556D-03 -0.203188D-03  0.165943D-03 -0.143828D-03
     68 -0.632277D-03 -0.266629D-03 -0.253519D-03  0.207048D-03 -0.233299D-03
     69  0.311628D-02  0.593140D-03  0.916526D-04 -0.957181D-04  0.549339D-04
     70 -0.999335D-03  0.210712D-03  0.957181D-04 -0.926326D-04  0.617398D-04
     71 -0.206699D-02 -0.565661D-03 -0.549339D-04  0.617398D-04 -0.204892D-04
     72 -0.370226D-02 -0.618931D-03 -0.910768D-04  0.102361D-03 -0.587461D-04
     73  0.723546D-04  0.238575D-02  0.777209D-02 -0.785571D-05 -0.314139D-02
     74  0.106505D-01  0.241751D-02  0.694710D-04 -0.839008D-04  0.284908D-05
     75  0.241751D-02  0.106505D-01  0.162266D-02 -0.129602D-02 -0.566865D-03
     76  0.694710D-04  0.162266D-02  0.106406D-01  0.000000D+00  0.000000D+00
     77 -0.839008D-04 -0.129602D-02  0.000000D+00  0.300051D-02  0.000000D+00
     78  0.284908D-05 -0.566865D-03  0.000000D+00  0.000000D+00  0.300051D-02
     79 -0.635186D-04 -0.182406D-02 -0.153962D-01  0.000000D+00  0.000000D+00
     80  0.162475D-04  0.703474D-04  0.117089D-02  0.000000D+00  0.111698D-02
     81 -0.181367D-04 -0.457329D-04  0.000000D+00  0.251761D-03  0.000000D+00
     82 -0.103889D-04 -0.715901D-04 -0.111698D-02  0.000000D+00 -0.917601D-03
     83 -0.137306D-04 -0.643654D-04 -0.139365D-02  0.000000D+00 -0.145901D-02
     84  0.171292D-03  0.501284D-04  0.703501D-04 -0.457343D-04  0.715927D-04
     85  0.236650D-02  0.171291D-03  0.162484D-04 -0.181377D-04  0.103895D-04
     86  0.257202D-05  0.423925D-04  0.200104D-02  0.844435D-03  0.149949D-02
     87 -0.328365D-05 -0.396051D-04 -0.844435D-03  0.649273D-04 -0.697849D-03
     88 -0.110402D-05 -0.344667D-04 -0.149949D-02 -0.697849D-03 -0.781273D-03
     89 -0.197744D-05 -0.377126D-04 -0.248605D-02 -0.115699D-02 -0.205450D-02
     90  0.517205D-05  0.191954D-03  0.608677D-02  0.283178D-02  0.165334D-02
     91 -0.684126D-05 -0.195587D-03 -0.283178D-02  0.124985D-03 -0.858662D-03
     92  0.000000D+00 -0.948130D-04 -0.165334D-02 -0.858662D-03  0.109434D-02
     93 -0.411987D-05 -0.186242D-03 -0.833695D-02 -0.432980D-02 -0.252796D-02
     94  0.718128D-05  0.157826D-04  0.269120D-03  0.000000D+00  0.296551D-03
     95  0.000000D+00  0.718104D-05  0.605084D-03  0.385425D-03  0.478382D-03
     96  0.115354D-05  0.723543D-04  0.322297D-02  0.234125D-02  0.172271D-03
               31            32            33            34            35
     31  0.100000D+01
     32  0.000000D+00  0.100000D+01
     33  0.000000D+00  0.000000D+00  0.100000D+01
     34  0.000000D+00  0.000000D+00  0.000000D+00  0.100000D+01
     35  0.148670D-01  0.000000D+00  0.000000D+00  0.000000D+00  0.100000D+01
     36  0.000000D+00  0.460693D-01 -0.541424D-01  0.236809D-01  0.000000D+00
     37  0.000000D+00  0.106158D-02 -0.152547D-02 -0.518016D-04  0.000000D+00
     38  0.000000D+00  0.418191D+00  0.363503D+00 -0.212233D+00  0.000000D+00
     39  0.000000D+00 -0.363503D+00 -0.180916D+00  0.253964D+00  0.000000D+00
     40  0.000000D+00  0.212233D+00  0.253964D+00  0.105783D+00  0.000000D+00
     41  0.340838D-01  0.000000D+00  0.000000D+00  0.000000D+00  0.254061D+00
     42  0.000000D+00  0.862716D-01  0.551952D-01 -0.980144D-01  0.000000D+00
     43  0.000000D+00 -0.551952D-01 -0.800824D-02  0.747480D-01  0.000000D+00
     44  0.000000D+00  0.980144D-01  0.747480D-01 -0.986508D-01  0.000000D+00
     45  0.254057D+00  0.000000D+00  0.000000D+00  0.000000D+00  0.340849D-01
     46  0.000000D+00  0.520189D+00 -0.123695D-02  0.489247D+00  0.000000D+00
     47  0.000000D+00  0.122079D+00  0.147806D+00 -0.108757D-01  0.000000D+00
     48  0.000000D+00  0.129870D-01  0.109269D-01 -0.135624D-01  0.000000D+00
     49  0.257218D-03  0.916494D-04 -0.957151D-04 -0.549319D-04  0.910735D-04
     50  0.310707D-03  0.957151D-04 -0.926302D-04 -0.617377D-04  0.102357D-03
     51 -0.586299D-04  0.549319D-04 -0.617377D-04 -0.204883D-04  0.587438D-04
     52 -0.251835D-03 -0.910735D-04  0.102357D-03  0.587438D-04 -0.824497D-04
     53  0.225823D-02  0.239229D-03 -0.180316D-03 -0.203175D-03  0.253502D-03
     54  0.218303D-02  0.180316D-03 -0.104114D-03 -0.165934D-03  0.207036D-03
     55  0.000000D+00  0.203175D-03 -0.165934D-03 -0.143819D-03  0.233282D-03
     56 -0.265445D-02 -0.253502D-03  0.207036D-03  0.233282D-03 -0.247915D-03
     57  0.801523D-02  0.190996D-02 -0.840712D-03 -0.143147D-02  0.236386D-02
     58  0.434188D-02  0.840712D-03  0.267569D-04 -0.694575D-03  0.114699D-02
     59 -0.239176D-02  0.143147D-02 -0.694575D-03 -0.747957D-03  0.195296D-02
     60 -0.106762D-01 -0.236386D-02  0.114699D-02  0.195296D-02 -0.279035D-02
     61  0.236391D-02  0.587161D-02 -0.285058D-02 -0.157025D-02  0.801512D-02
     62  0.114699D-02  0.285058D-02 -0.119418D-04 -0.850621D-03  0.434187D-02
     63 -0.195300D-02  0.157025D-02 -0.850621D-03  0.106368D-02  0.239173D-02
     64 -0.279040D-02 -0.801512D-02  0.434187D-02  0.239173D-02 -0.106760D-01
     65  0.253519D-03  0.183091D-02 -0.160627D-02  0.000000D+00  0.225823D-02
     66  0.207048D-03  0.160627D-02 -0.113815D-02  0.000000D+00  0.218303D-02
     67 -0.233299D-03  0.000000D+00  0.000000D+00  0.414630D-03  0.000000D+00
     68 -0.247933D-03 -0.225823D-02  0.218303D-02  0.000000D+00 -0.265445D-02
     69  0.910768D-04  0.242500D-03 -0.270317D-03 -0.510080D-04  0.257208D-03
     70  0.102361D-03  0.270317D-03 -0.282726D-03 -0.616154D-04  0.310696D-03
     71 -0.587461D-04  0.510080D-04 -0.616154D-04  0.321781D-04  0.586274D-04
     72 -0.824530D-04 -0.257208D-03  0.310696D-03  0.586274D-04 -0.251824D-03
     73  0.101085D-01  0.269125D-03  0.000000D+00 -0.296556D-03  0.266629D-03
     74  0.635186D-04  0.162475D-04 -0.181367D-04 -0.103889D-04  0.137306D-04
     75  0.182406D-02  0.703474D-04 -0.457329D-04 -0.715901D-04  0.643654D-04
     76  0.153962D-01  0.117089D-02  0.000000D+00 -0.111698D-02  0.139365D-02
     77  0.000000D+00  0.000000D+00  0.251761D-03  0.000000D+00  0.000000D+00
     78  0.000000D+00  0.111698D-02  0.000000D+00 -0.917601D-03  0.145901D-02
     79 -0.220658D-01 -0.139365D-02  0.000000D+00  0.145901D-02 -0.156865D-02
     80  0.139365D-02  0.106406D-01  0.000000D+00  0.000000D+00  0.153962D-01
     81  0.000000D+00  0.000000D+00  0.300051D-02  0.000000D+00  0.000000D+00
     82 -0.145901D-02  0.000000D+00  0.000000D+00  0.300051D-02  0.000000D+00
     83 -0.156865D-02 -0.153962D-01  0.000000D+00  0.000000D+00 -0.220658D-01
     84  0.643679D-04  0.162263D-02 -0.129600D-02  0.566849D-03  0.182402D-02
     85  0.137315D-04  0.694697D-04 -0.838993D-04 -0.284902D-05  0.635173D-04
     86  0.248605D-02  0.608681D-02  0.283178D-02 -0.165335D-02  0.833702D-02
     87 -0.115699D-02 -0.283178D-02  0.125009D-03  0.858661D-03 -0.432981D-02
     88 -0.205450D-02  0.165335D-02  0.858661D-03  0.109435D-02  0.252798D-02
     89 -0.294830D-02 -0.833702D-02 -0.432981D-02  0.252798D-02 -0.111517D-01
     90  0.833695D-02  0.200108D-02  0.844432D-03 -0.149952D-02  0.248611D-02
     91 -0.432980D-02 -0.844432D-03  0.649482D-04  0.697847D-03 -0.115699D-02
     92 -0.252796D-02  0.149952D-02  0.697847D-03 -0.781291D-03  0.205455D-02
     93 -0.111516D-01 -0.248611D-02 -0.115699D-02  0.205455D-02 -0.294838D-02
     94  0.266624D-03  0.777204D-02 -0.794231D-05  0.314140D-02  0.101084D-01
     95  0.632262D-03  0.322300D-02  0.234127D-02 -0.172273D-03  0.384071D-02
     96  0.384067D-02  0.605102D-03  0.385432D-03 -0.478397D-03  0.632282D-03
               36            37            38            39            40
     36  0.100000D+01
     37  0.627504D-01  0.100000D+01
     38  0.333994D-02  0.635641D-04  0.100000D+01
     39 -0.419337D-02 -0.960274D-04  0.000000D+00  0.100000D+01
     40  0.203276D-02  0.887436D-05  0.000000D+00  0.000000D+00  0.100000D+01
     41  0.000000D+00  0.000000D+00  0.000000D+00  0.000000D+00  0.000000D+00
     42  0.615279D-03  0.303534D-04  0.398147D+00 -0.287640D-05 -0.407575D+00
     43 -0.675957D-03 -0.440336D-04  0.287640D-05  0.237410D+00 -0.401758D-05
     44  0.588257D-03  0.148049D-04  0.407575D+00 -0.401758D-05 -0.331866D+00
     45  0.000000D+00  0.000000D+00  0.000000D+00  0.000000D+00  0.000000D+00
     46  0.615655D-01  0.880781D-03  0.121261D+00 -0.818766D-01  0.122433D+00
     47  0.880733D-03  0.101296D-04  0.520720D+00  0.425567D+00  0.241943D+00
     48  0.701841D-04  0.333034D-05  0.116093D+00  0.615788D-01 -0.127368D+00
     49  0.593149D-03  0.311630D-02  0.149843D-04 -0.185054D-04 -0.538737D-05
     50  0.210716D-03 -0.999331D-03  0.185054D-04 -0.222788D-04 -0.707717D-05
     51  0.565669D-03  0.206701D-02  0.538737D-05 -0.707717D-05  0.000000D+00
     52 -0.618942D-03 -0.370228D-02 -0.133072D-04  0.174811D-04  0.508919D-05
     53  0.269125D-03  0.605107D-03  0.916493D-04 -0.957150D-04 -0.549319D-04
     54  0.000000D+00 -0.385434D-03  0.957150D-04 -0.926301D-04 -0.617376D-04
     55  0.296556D-03  0.478402D-03  0.549319D-04 -0.617376D-04 -0.204883D-04
     56 -0.266629D-03 -0.632289D-03 -0.910734D-04  0.102357D-03  0.587437D-04
     57  0.569605D-03  0.262623D-03  0.114479D-02 -0.945764D-03 -0.553939D-03
     58 -0.210339D-03 -0.250757D-03  0.945764D-03 -0.611784D-03 -0.502124D-03
     59  0.543132D-03  0.145665D-03  0.553939D-03 -0.502124D-03 -0.485822D-04
     60 -0.592724D-03 -0.259788D-03 -0.136020D-02  0.123296D-02  0.722153D-03
     61  0.313461D-02  0.587620D-03  0.197270D-02 -0.170211D-02  0.588213D-05
     62 -0.132224D-02 -0.591476D-03  0.170211D-02 -0.116876D-02  0.559641D-05
     63  0.188789D-02  0.925643D-04 -0.588213D-05  0.559641D-05  0.450655D-03
     64 -0.372600D-02 -0.612778D-03 -0.244797D-02  0.232907D-02 -0.804876D-05
     65  0.777204D-02  0.322301D-02  0.242509D-03 -0.270327D-03  0.510094D-04
     66  0.785566D-05 -0.234127D-02  0.270327D-03 -0.282736D-03  0.616170D-04
     67  0.314140D-02 -0.172262D-03 -0.510094D-04  0.616170D-04  0.321799D-04
     68 -0.101084D-01 -0.384072D-02 -0.257219D-03  0.310709D-03 -0.586292D-04
     69  0.320861D-02  0.777642D-02  0.238125D-04 -0.302379D-04  0.000000D+00
     70  0.130119D-02 -0.273019D-02  0.302379D-04 -0.375768D-04  0.000000D+00
     71  0.194572D-02  0.155220D-02  0.000000D+00  0.000000D+00  0.338257D-05
     72 -0.382201D-02 -0.101147D-01 -0.217440D-04  0.294539D-04  0.000000D+00
     73  0.157830D-04  0.718137D-05  0.593148D-03 -0.210716D-03 -0.565668D-03
     74  0.171292D-03  0.236650D-02  0.257202D-05 -0.328365D-05 -0.110402D-05
     75  0.501284D-04  0.171291D-03  0.423925D-04 -0.396051D-04 -0.344667D-04
     76  0.703501D-04  0.162484D-04  0.200104D-02 -0.844435D-03 -0.149949D-02
     77 -0.457343D-04 -0.181377D-04  0.844435D-03  0.649273D-04 -0.697849D-03
     78  0.715927D-04  0.103895D-04  0.149949D-02 -0.697849D-03 -0.781273D-03
     79 -0.643679D-04 -0.137315D-04 -0.248605D-02  0.115699D-02  0.205450D-02
     80  0.162263D-02  0.694697D-04  0.608681D-02 -0.283178D-02  0.165335D-02
     81 -0.129600D-02 -0.838993D-04  0.283178D-02  0.125009D-03  0.858661D-03
     82  0.566849D-03 -0.284902D-05 -0.165335D-02  0.858661D-03  0.109435D-02
     83 -0.182402D-02 -0.635173D-04 -0.833702D-02  0.432981D-02 -0.252798D-02
     84  0.106505D-01  0.241755D-02  0.191953D-03 -0.195586D-03  0.948116D-04
     85  0.241755D-02  0.106505D-01  0.517205D-05 -0.684126D-05  0.000000D+00
     86  0.191953D-03  0.517205D-05  0.106406D-01  0.000000D+00  0.000000D+00
     87 -0.195586D-03 -0.684126D-05  0.000000D+00  0.300051D-02  0.000000D+00
     88  0.948116D-04  0.000000D+00  0.000000D+00  0.000000D+00  0.300051D-02
     89 -0.186240D-03 -0.411988D-05 -0.153962D-01  0.000000D+00  0.000000D+00
     90  0.423938D-04  0.257214D-05  0.589175D-02  0.000000D+00 -0.325707D-02
     91 -0.396063D-04 -0.328380D-05  0.000000D+00  0.153817D-02  0.000000D+00
     92  0.344677D-04  0.110407D-05  0.325707D-02  0.000000D+00 -0.471002D-03
     93 -0.377138D-04 -0.197754D-05 -0.804520D-02  0.000000D+00  0.496281D-02
     94  0.238578D-02  0.723569D-04  0.320856D-02 -0.130118D-02  0.194570D-02
     95  0.723533D-04  0.115354D-05  0.777634D-02  0.273022D-02  0.155218D-02
     96  0.718125D-05  0.000000D+00  0.311628D-02  0.999335D-03 -0.206699D-02
               41            42            43            44            45
     41  0.100000D+01
     42  0.000000D+00  0.100000D+01
     43  0.000000D+00  0.000000D+00  0.100000D+01
     44  0.000000D+00  0.000000D+00  0.000000D+00  0.100000D+01
     45  0.237410D+00  0.000000D+00  0.000000D+00  0.000000D+00  0.100000D+01
     46  0.000000D+00  0.126731D-01 -0.593720D-02  0.159385D-01  0.000000D+00
     47  0.000000D+00  0.116092D+00  0.615791D-01  0.127366D+00  0.000000D+00
     48  0.000000D+00  0.520719D+00  0.425567D+00 -0.241944D+00  0.000000D+00
     49  0.133072D-04  0.238130D-04 -0.302385D-04  0.000000D+00  0.217445D-04
     50  0.174811D-04  0.302385D-04 -0.375776D-04  0.000000D+00  0.294546D-04
     51  0.508919D-05  0.000000D+00  0.000000D+00  0.338265D-05  0.000000D+00
     52 -0.105397D-04 -0.217445D-04  0.294546D-04  0.000000D+00 -0.177982D-04
     53  0.910734D-04  0.242504D-03 -0.270321D-03 -0.510090D-04  0.257213D-03
     54  0.102357D-03  0.270321D-03 -0.282730D-03 -0.616165D-04  0.310702D-03
     55  0.587437D-04  0.510090D-04 -0.616165D-04  0.321787D-04  0.586287D-04
     56 -0.824496D-04 -0.257213D-03  0.310702D-03  0.586287D-04 -0.251829D-03
     57  0.136020D-02  0.197271D-02 -0.170212D-02 -0.588357D-05  0.244799D-02
     58  0.123296D-02  0.170212D-02 -0.116876D-02 -0.559778D-05  0.232908D-02
     59  0.722153D-03  0.588357D-05 -0.559778D-05  0.450659D-03  0.805075D-05
     60 -0.152773D-02 -0.244799D-02  0.232908D-02  0.805075D-05 -0.289901D-02
     61  0.244797D-02  0.114481D-02 -0.945779D-03  0.553950D-03  0.136022D-02
     62  0.232907D-02  0.945779D-03 -0.611788D-03  0.502132D-03  0.123299D-02
     63 -0.804876D-05 -0.553950D-03  0.502132D-03 -0.485827D-04 -0.722169D-03
     64 -0.289899D-02 -0.136022D-02  0.123299D-02 -0.722169D-03 -0.152777D-02
     65  0.257219D-03  0.916552D-04 -0.957208D-04  0.549353D-04  0.910796D-04
     66  0.310709D-03  0.957208D-04 -0.926351D-04  0.617413D-04  0.102364D-03
     67 -0.586292D-04 -0.549353D-04  0.617413D-04 -0.204895D-04 -0.587477D-04
     68 -0.251836D-03 -0.910796D-04  0.102364D-03 -0.587477D-04 -0.824557D-04
     69  0.217440D-04  0.149846D-04 -0.185058D-04  0.538750D-05  0.133075D-04
     70  0.294539D-04  0.185058D-04 -0.222793D-04  0.707733D-05  0.174815D-04
     71  0.000000D+00 -0.538750D-05  0.707733D-05  0.000000D+00 -0.508931D-05
     72 -0.177977D-04 -0.133075D-04  0.174815D-04 -0.508931D-05 -0.105400D-04
     73  0.618941D-03  0.320862D-02 -0.130118D-02 -0.194573D-02  0.382203D-02
     74  0.197744D-05  0.517205D-05 -0.684126D-05  0.000000D+00  0.411987D-05
     75  0.377126D-04  0.191954D-03 -0.195587D-03 -0.948130D-04  0.186242D-03
     76  0.248605D-02  0.608677D-02 -0.283178D-02 -0.165334D-02  0.833695D-02
     77  0.115699D-02  0.283178D-02  0.124985D-03 -0.858662D-03  0.432980D-02
     78  0.205450D-02  0.165334D-02 -0.858662D-03  0.109434D-02  0.252796D-02
     79 -0.294830D-02 -0.833695D-02  0.432980D-02  0.252796D-02 -0.111516D-01
     80  0.833702D-02  0.200108D-02 -0.844432D-03  0.149952D-02  0.248611D-02
     81  0.432981D-02  0.844432D-03  0.649482D-04  0.697847D-03  0.115699D-02
     82 -0.252798D-02 -0.149952D-02  0.697847D-03 -0.781291D-03 -0.205455D-02
     83 -0.111517D-01 -0.248611D-02  0.115699D-02 -0.205455D-02 -0.294838D-02
     84  0.186240D-03  0.423938D-04 -0.396063D-04  0.344677D-04  0.377138D-04
     85  0.411988D-05  0.257214D-05 -0.328380D-05  0.110407D-05  0.197754D-05
     86  0.153962D-01  0.589175D-02  0.000000D+00  0.325707D-02  0.804520D-02
     87  0.000000D+00  0.000000D+00  0.153817D-02  0.000000D+00  0.000000D+00
     88  0.000000D+00 -0.325707D-02  0.000000D+00 -0.471002D-03 -0.496281D-02
     89 -0.220658D-01 -0.804520D-02  0.000000D+00 -0.496281D-02 -0.107203D-01
     90  0.804520D-02  0.106406D-01  0.000000D+00  0.000000D+00  0.153962D-01
     91  0.000000D+00  0.000000D+00  0.300051D-02  0.000000D+00  0.000000D+00
     92  0.496281D-02  0.000000D+00  0.000000D+00  0.300051D-02  0.000000D+00
     93 -0.107203D-01 -0.153962D-01  0.000000D+00  0.000000D+00 -0.220658D-01
     94  0.382194D-02  0.593140D-03 -0.210713D-03  0.565662D-03  0.618932D-03
     95  0.101146D-01  0.311625D-02  0.999347D-03  0.206697D-02  0.370222D-02
     96  0.370226D-02  0.777634D-02  0.273022D-02 -0.155219D-02  0.101146D-01
               46            47            48            49            50
     46  0.100000D+01
     47  0.627472D-01  0.100000D+01
     48  0.233174D-02  0.608514D-01  0.100000D+01
     49  0.423933D-04  0.257197D-05  0.517193D-05  0.100000D+01
     50  0.396057D-04  0.328358D-05  0.684111D-05  0.000000D+00  0.100000D+01
     51  0.344673D-04  0.110399D-05  0.000000D+00  0.000000D+00  0.000000D+00
     52 -0.377133D-04 -0.197740D-05 -0.411977D-05  0.000000D+00  0.000000D+00
     53  0.703482D-04  0.162471D-04  0.694683D-04  0.418191D+00  0.363502D+00
     54  0.457332D-04  0.181364D-04  0.838977D-04 -0.363502D+00 -0.180916D+00
     55  0.715909D-04  0.103887D-04  0.284896D-05  0.212233D+00  0.253964D+00
     56 -0.643661D-04 -0.137304D-04 -0.635160D-04  0.000000D+00  0.000000D+00
     57  0.569598D-03  0.262614D-03  0.587612D-03  0.846391D-01  0.110523D+00
     58  0.210335D-03  0.250749D-03  0.591469D-03 -0.110523D+00 -0.138570D+00
     59  0.543127D-03  0.145660D-03 -0.925627D-04  0.382034D-03  0.594126D-03
     60 -0.592717D-03 -0.259778D-03 -0.612768D-03  0.000000D+00  0.000000D+00
     61  0.313461D-02  0.587606D-03  0.262619D-03  0.416121D-01  0.490741D-01
     62  0.132223D-02  0.591464D-03  0.250754D-03 -0.490741D-01 -0.527411D-01
     63  0.188790D-02  0.925619D-04 -0.145663D-03 -0.287429D-01 -0.393103D-01
     64 -0.372600D-02 -0.612762D-03 -0.259784D-03  0.000000D+00  0.000000D+00
     65  0.162267D-02  0.694697D-04  0.162482D-04  0.862706D-01  0.551960D-01
     66  0.129602D-02  0.838993D-04  0.181375D-04 -0.551960D-01 -0.801020D-02
     67  0.566875D-03 -0.284884D-05 -0.103894D-04 -0.980127D-01 -0.747485D-01
     68 -0.182407D-02 -0.635173D-04 -0.137313D-04  0.000000D+00  0.000000D+00
     69  0.191954D-03  0.517181D-05  0.257202D-05  0.398147D+00  0.000000D+00
     70  0.195587D-03  0.684096D-05  0.328365D-05  0.000000D+00  0.237410D+00
     71  0.948130D-04  0.000000D+00 -0.110402D-05 -0.407575D+00  0.000000D+00
     72 -0.186242D-03 -0.411967D-05 -0.197744D-05  0.000000D+00  0.000000D+00
     73  0.501284D-04  0.171291D-03  0.241752D-02  0.333994D-02  0.419336D-02
     74  0.718128D-05  0.000000D+00  0.115354D-05  0.520724D+00 -0.425568D+00
     75  0.157826D-04  0.718104D-05  0.723543D-04  0.121262D+00  0.818767D-01
     76  0.269120D-03  0.605084D-03  0.322297D-02  0.632579D-02  0.913905D-02
     77  0.000000D+00  0.385425D-03  0.234125D-02 -0.913905D-02 -0.130801D-01
     78  0.296551D-03  0.478382D-03  0.172271D-03  0.172452D-02  0.278265D-02
     79 -0.266624D-03 -0.632262D-03 -0.384067D-02  0.000000D+00  0.000000D+00
     80  0.777204D-02  0.322300D-02  0.605102D-03  0.207463D-02  0.271691D-02
     81 -0.794231D-05  0.234127D-02  0.385432D-03 -0.271691D-02 -0.344846D-02
     82  0.314140D-02 -0.172273D-03 -0.478397D-03 -0.155926D-02 -0.225274D-02
     83 -0.101084D-01 -0.384071D-02 -0.632282D-03  0.000000D+00  0.000000D+00
     84  0.238578D-02  0.723533D-04  0.718125D-05  0.126733D-01  0.593732D-02
     85  0.723569D-04  0.115354D-05  0.000000D+00  0.116094D+00 -0.615787D-01
[...]
    21  C    0.000000   0.000000   0.000000   0.000000   0.000000   0.000000
    22  C    0.000000   0.000000   0.000000   0.000000   0.000000   0.000000
    23  C    0.000000   0.000000   0.000000   0.000000   0.000000   0.000000
    24  C    0.000000   0.000000   0.000000   0.000000   0.000000   0.000000
    25  H    0.000000   0.000000   0.000000   0.000000   0.000000   0.000000
    26  H    0.000000   0.000000   0.000000   0.000000   0.000000   0.000000
    27  H    0.000000   0.000000   0.000000   0.000000   0.000000   0.000000
    28  C    0.000000   0.000000   0.000000   0.000000   0.000000   0.000000
    29  C    0.000000   0.000000   0.000000   0.000000   0.000000   0.000000
    30  H    0.000000   0.000000   0.000000   0.000000   0.000000   0.000000
    31  H    0.000000   0.000000   0.000000   0.000000   0.000000   0.000000
    32  C    0.000000   0.000000   0.000000   0.000000   0.000000   0.000000
    33  C    0.000000   0.000000   0.000000   0.000000   0.000000   0.000000
    34  H    0.000000   0.000000   0.000000   0.000000   0.000000   0.000000
    35  H    0.000000   0.000000   0.000000   0.000000   0.000000   0.000000
    36  H    0.000000   0.000000   0.000000   0.000000   0.000000   0.000000
              7          8          9         10         11         12
     1  C    0.000000   0.000000   0.000000   0.000000   0.000000   0.000000
     2  C    0.000000   0.000000   0.000000   0.000000   0.000000   0.000000
     3  C    0.000000   0.000000   0.000000   0.000000   0.000000   0.000000
     4  C    0.000000   0.000000   0.000000   0.000000   0.000000   0.000000
     5  C    0.000000   0.000000   0.000000   0.000000   0.000000   0.000000
     6  C    0.000000   0.000000   0.000000   0.000000   0.000000   0.000000
     7  H    0.968455   0.000000   0.000000   0.000000   0.000000   0.000000
     8  H    0.000000   0.967894   0.000000   0.000000   0.000000   0.000000
     9  H    0.000000   0.000000   0.968456   0.000000   0.000000   0.000000
    10  C    0.000000   0.000000   0.000000   4.037035   0.000000   0.000000
    11  C    0.000000   0.000000   0.000000   0.000000   4.037035   0.000000
    12  H    0.000000   0.000000   0.000000   0.000000   0.000000   0.968459
    13  H    0.000000   0.000000   0.000000   0.000000   0.000000   0.000000
    14  C    0.000000   0.000000   0.000000   0.000000   0.000000   0.000000
    15  C    0.000000   0.000000   0.000000   0.000000   0.000000   0.000000
    16  H    0.000000   0.000000   0.000000   0.000000   0.000000   0.000000
    17  H    0.000000   0.000000   0.000000   0.000000   0.000000   0.000000
    18  H    0.000000   0.000000   0.000000   0.000000   0.000000   0.000000
    19  C    0.000000   0.000000   0.000000   0.000000   0.000000   0.000000
    20  C    0.000000   0.000000   0.000000   0.000000   0.000000   0.000000
    21  C    0.000000   0.000000   0.000000   0.000000   0.000000   0.000000
    22  C    0.000000   0.000000   0.000000   0.000000   0.000000   0.000000
    23  C    0.000000   0.000000   0.000000   0.000000   0.000000   0.000000
    24  C    0.000000   0.000000   0.000000   0.000000   0.000000   0.000000
    25  H    0.000000   0.000000   0.000000   0.000000   0.000000   0.000000
    26  H    0.000000   0.000000   0.000000   0.000000   0.000000   0.000000
    27  H    0.000000   0.000000   0.000000   0.000000   0.000000   0.000000
    28  C    0.000000   0.000000   0.000000   0.000000   0.000000   0.000000
    29  C    0.000000   0.000000   0.000000   0.000000   0.000000   0.000000
    30  H    0.000000   0.000000   0.000000   0.000000   0.000000   0.000000
    31  H    0.000000   0.000000   0.000000   0.000000   0.000000   0.000000
    32  C    0.000000   0.000000   0.000000   0.000000   0.000000   0.000000
    33  C    0.000000   0.000000   0.000000   0.000000   0.000000   0.000000
    34  H    0.000000   0.000000   0.000000   0.000000   0.000000   0.000000
    35  H    0.000000   0.000000   0.000000   0.000000   0.000000   0.000000
    36  H    0.000000   0.000000   0.000000   0.000000   0.000000   0.000000
             13         14         15         16         17         18
     1  C    0.000000   0.000000   0.000000   0.000000   0.000000   0.000000
     2  C    0.000000   0.000000   0.000000   0.000000   0.000000   0.000000
     3  C    0.000000   0.000000   0.000000   0.000000   0.000000   0.000000
     4  C    0.000000   0.000000   0.000000   0.000000   0.000000   0.000000
     5  C    0.000000   0.000000   0.000000   0.000000   0.000000   0.000000
     6  C    0.000000   0.000000   0.000000   0.000000   0.000000   0.000000
     7  H    0.000000   0.000000   0.000000   0.000000   0.000000   0.000000
     8  H    0.000000   0.000000   0.000000   0.000000   0.000000   0.000000
     9  H    0.000000   0.000000   0.000000   0.000000   0.000000   0.000000
    10  C    0.000000   0.000000   0.000000   0.000000   0.000000   0.000000
    11  C    0.000000   0.000000   0.000000   0.000000   0.000000   0.000000
    12  H    0.000000   0.000000   0.000000   0.000000   0.000000   0.000000
    13  H    0.967891   0.000000   0.000000   0.000000   0.000000   0.000000
    14  C    0.000000   4.034485   0.000000   0.000000   0.000000   0.000000
    15  C    0.000000   0.000000   4.034487   0.000000   0.000000   0.000000
    16  H    0.000000   0.000000   0.000000   0.968456   0.000000   0.000000
    17  H    0.000000   0.000000   0.000000   0.000000   0.967894   0.000000
    18  H    0.000000   0.000000   0.000000   0.000000   0.000000   0.967895
    19  C    0.000000   0.000000   0.000000   0.000000   0.000000   0.000000
    20  C    0.000000   0.000000   0.000000   0.000000   0.000000   0.000000
    21  C    0.000000   0.000000   0.000000   0.000000   0.000000   0.000000
    22  C    0.000000   0.000000   0.000000   0.000000   0.000000   0.000000
    23  C    0.000000   0.000000   0.000000   0.000000   0.000000   0.000000
    24  C    0.000000   0.000000   0.000000   0.000000   0.000000   0.000000
    25  H    0.000000   0.000000   0.000000   0.000000   0.000000   0.000000
    26  H    0.000000   0.000000   0.000000   0.000000   0.000000   0.000000
    27  H    0.000000   0.000000   0.000000   0.000000   0.000000   0.000000
    28  C    0.000000   0.000000   0.000000   0.000000   0.000000   0.000000
    29  C    0.000000   0.000000   0.000000   0.000000   0.000000   0.000000
    30  H    0.000000   0.000000   0.000000   0.000000   0.000000   0.000000
    31  H    0.000000   0.000000   0.000000   0.000000   0.000000   0.000000
    32  C    0.000000   0.000000   0.000000   0.000000   0.000000   0.000000
    33  C    0.000000   0.000000   0.000000   0.000000   0.000000   0.000000
    34  H    0.000000   0.000000   0.000000   0.000000   0.000000   0.000000
    35  H    0.000000   0.000000   0.000000   0.000000   0.000000   0.000000
    36  H    0.000000   0.000000   0.000000   0.000000   0.000000   0.000000
             19         20         21         22         23         24
     1  C    0.000000   0.000000   0.000000   0.000000   0.000000   0.000000
     2  C    0.000000   0.000000   0.000000   0.000000   0.000000   0.000000
     3  C    0.000000   0.000000   0.000000   0.000000   0.000000   0.000000
     4  C    0.000000   0.000000   0.000000   0.000000   0.000000   0.000000
     5  C    0.000000   0.000000   0.000000   0.000000   0.000000   0.000000
     6  C    0.000000   0.000000   0.000000   0.000000   0.000000   0.000000
     7  H    0.000000   0.000000   0.000000   0.000000   0.000000   0.000000
     8  H    0.000000   0.000000   0.000000   0.000000   0.000000   0.000000
     9  H    0.000000   0.000000   0.000000   0.000000   0.000000   0.000000
    10  C    0.000000   0.000000   0.000000   0.000000   0.000000   0.000000
    11  C    0.000000   0.000000   0.000000   0.000000   0.000000   0.000000
    12  H    0.000000   0.000000   0.000000   0.000000   0.000000   0.000000
    13  H    0.000000   0.000000   0.000000   0.000000   0.000000   0.000000
    14  C    0.000000   0.000000   0.000000   0.000000   0.000000   0.000000
    15  C    0.000000   0.000000   0.000000   0.000000   0.000000   0.000000
    16  H    0.000000   0.000000   0.000000   0.000000   0.000000   0.000000
    17  H    0.000000   0.000000   0.000000   0.000000   0.000000   0.000000
    18  H    0.000000   0.000000   0.000000   0.000000   0.000000   0.000000
    19  C    4.034485   0.000000   0.000000   0.000000   0.000000   0.000000
    20  C    0.000000   4.037037   0.000000   0.000000   0.000000   0.000000
    21  C    0.000000   0.000000   3.984256   0.000000   0.000000   0.000000
    22  C    0.000000   0.000000   0.000000   3.984256   0.000000   0.000000
    23  C    0.000000   0.000000   0.000000   0.000000   4.037034   0.000000
    24  C    0.000000   0.000000   0.000000   0.000000   0.000000   4.034490
    25  H    0.000000   0.000000   0.000000   0.000000   0.000000   0.000000
    26  H    0.000000   0.000000   0.000000   0.000000   0.000000   0.000000
    27  H    0.000000   0.000000   0.000000   0.000000   0.000000   0.000000
    28  C    0.000000   0.000000   0.000000   0.000000   0.000000   0.000000
    29  C    0.000000   0.000000   0.000000   0.000000   0.000000   0.000000
    30  H    0.000000   0.000000   0.000000   0.000000   0.000000   0.000000
    31  H    0.000000   0.000000   0.000000   0.000000   0.000000   0.000000
    32  C    0.000000   0.000000   0.000000   0.000000   0.000000   0.000000
    33  C    0.000000   0.000000   0.000000   0.000000   0.000000   0.000000
    34  H    0.000000   0.000000   0.000000   0.000000   0.000000   0.000000
    35  H    0.000000   0.000000   0.000000   0.000000   0.000000   0.000000
    36  H    0.000000   0.000000   0.000000   0.000000   0.000000   0.000000
             25         26         27         28         29         30
     1  C    0.000000   0.000000   0.000000   0.000000   0.000000   0.000000
     2  C    0.000000   0.000000   0.000000   0.000000   0.000000   0.000000
     3  C    0.000000   0.000000   0.000000   0.000000   0.000000   0.000000
     4  C    0.000000   0.000000   0.000000   0.000000   0.000000   0.000000
     5  C    0.000000   0.000000   0.000000   0.000000   0.000000   0.000000
     6  C    0.000000   0.000000   0.000000   0.000000   0.000000   0.000000
     7  H    0.000000   0.000000   0.000000   0.000000   0.000000   0.000000
     8  H    0.000000   0.000000   0.000000   0.000000   0.000000   0.000000
     9  H    0.000000   0.000000   0.000000   0.000000   0.000000   0.000000
    10  C    0.000000   0.000000   0.000000   0.000000   0.000000   0.000000
    11  C    0.000000   0.000000   0.000000   0.000000   0.000000   0.000000
    12  H    0.000000   0.000000   0.000000   0.000000   0.000000   0.000000
    13  H    0.000000   0.000000   0.000000   0.000000   0.000000   0.000000
    14  C    0.000000   0.000000   0.000000   0.000000   0.000000   0.000000
    15  C    0.000000   0.000000   0.000000   0.000000   0.000000   0.000000
    16  H    0.000000   0.000000   0.000000   0.000000   0.000000   0.000000
    17  H    0.000000   0.000000   0.000000   0.000000   0.000000   0.000000
    18  H    0.000000   0.000000   0.000000   0.000000   0.000000   0.000000
    19  C    0.000000   0.000000   0.000000   0.000000   0.000000   0.000000
    20  C    0.000000   0.000000   0.000000   0.000000   0.000000   0.000000
    21  C    0.000000   0.000000   0.000000   0.000000   0.000000   0.000000
    22  C    0.000000   0.000000   0.000000   0.000000   0.000000   0.000000
    23  C    0.000000   0.000000   0.000000   0.000000   0.000000   0.000000
    24  C    0.000000   0.000000   0.000000   0.000000   0.000000   0.000000
    25  H    0.968455   0.000000   0.000000   0.000000   0.000000   0.000000
    26  H    0.000000   0.967894   0.000000   0.000000   0.000000   0.000000
    27  H    0.000000   0.000000   0.968456   0.000000   0.000000   0.000000
    28  C    0.000000   0.000000   0.000000   4.037035   0.000000   0.000000
    29  C    0.000000   0.000000   0.000000   0.000000   4.037035   0.000000
    30  H    0.000000   0.000000   0.000000   0.000000   0.000000   0.968459
    31  H    0.000000   0.000000   0.000000   0.000000   0.000000   0.000000
    32  C    0.000000   0.000000   0.000000   0.000000   0.000000   0.000000
    33  C    0.000000   0.000000   0.000000   0.000000   0.000000   0.000000
    34  H    0.000000   0.000000   0.000000   0.000000   0.000000   0.000000
    35  H    0.000000   0.000000   0.000000   0.000000   0.000000   0.000000
    36  H    0.000000   0.000000   0.000000   0.000000   0.000000   0.000000
             31         32         33         34         35         36
     1  C    0.000000   0.000000   0.000000   0.000000   0.000000   0.000000
     2  C    0.000000   0.000000   0.000000   0.000000   0.000000   0.000000
     3  C    0.000000   0.000000   0.000000   0.000000   0.000000   0.000000
     4  C    0.000000   0.000000   0.000000   0.000000   0.000000   0.000000
     5  C    0.000000   0.000000   0.000000   0.000000   0.000000   0.000000
     6  C    0.000000   0.000000   0.000000   0.000000   0.000000   0.000000
     7  H    0.000000   0.000000   0.000000   0.000000   0.000000   0.000000
     8  H    0.000000   0.000000   0.000000   0.000000   0.000000   0.000000
     9  H    0.000000   0.000000   0.000000   0.000000   0.000000   0.000000
    10  C    0.000000   0.000000   0.000000   0.000000   0.000000   0.000000
    11  C    0.000000   0.000000   0.000000   0.000000   0.000000   0.000000
    12  H    0.000000   0.000000   0.000000   0.000000   0.000000   0.000000
    13  H    0.000000   0.000000   0.000000   0.000000   0.000000   0.000000
    14  C    0.000000   0.000000   0.000000   0.000000   0.000000   0.000000
    15  C    0.000000   0.000000   0.000000   0.000000   0.000000   0.000000
    16  H    0.000000   0.000000   0.000000   0.000000   0.000000   0.000000
    17  H    0.000000   0.000000   0.000000   0.000000   0.000000   0.000000
    18  H    0.000000   0.000000   0.000000   0.000000   0.000000   0.000000
    19  C    0.000000   0.000000   0.000000   0.000000   0.000000   0.000000
    20  C    0.000000   0.000000   0.000000   0.000000   0.000000   0.000000
    21  C    0.000000   0.000000   0.000000   0.000000   0.000000   0.000000
    22  C    0.000000   0.000000   0.000000   0.000000   0.000000   0.000000
    23  C    0.000000   0.000000   0.000000   0.000000   0.000000   0.000000
    24  C    0.000000   0.000000   0.000000   0.000000   0.000000   0.000000
    25  H    0.000000   0.000000   0.000000   0.000000   0.000000   0.000000
    26  H    0.000000   0.000000   0.000000   0.000000   0.000000   0.000000
    27  H    0.000000   0.000000   0.000000   0.000000   0.000000   0.000000
    28  C    0.000000   0.000000   0.000000   0.000000   0.000000   0.000000
    29  C    0.000000   0.000000   0.000000   0.000000   0.000000   0.000000
    30  H    0.000000   0.000000   0.000000   0.000000   0.000000   0.000000
    31  H    0.967891   0.000000   0.000000   0.000000   0.000000   0.000000
    32  C    0.000000   4.034485   0.000000   0.000000   0.000000   0.000000
    33  C    0.000000   0.000000   4.034487   0.000000   0.000000   0.000000
    34  H    0.000000   0.000000   0.000000   0.968456   0.000000   0.000000
    35  H    0.000000   0.000000   0.000000   0.000000   0.967894   0.000000
    36  H    0.000000   0.000000   0.000000   0.000000   0.000000   0.967895
 Mulliken atomic charges:
              1
     1  C   -0.034485
     2  C   -0.037037
     3  C    0.015744
     4  C    0.015744
     5  C   -0.037034
     6  C   -0.034490
     7  H    0.031545
     8  H    0.032106
     9  H    0.031544
    10  C   -0.037035
    11  C   -0.037035
    12  H    0.031541
    13  H    0.032109
    14  C   -0.034485
    15  C   -0.034487
    16  H    0.031544
    17  H    0.032106
    18  H    0.032105
    19  C   -0.034485
    20  C   -0.037037
    21  C    0.015744
    22  C    0.015744
    23  C   -0.037034
    24  C   -0.034490
    25  H    0.031545
    26  H    0.032106
    27  H    0.031544
    28  C   -0.037035
    29  C   -0.037035
    30  H    0.031541
    31  H    0.032109
    32  C   -0.034485
    33  C   -0.034487
    34  H    0.031544
    35  H    0.032106
    36  H    0.032105
 Sum of Mulliken charges=   0.00000
 Atomic charges with hydrogens summed into heavy atoms:
              1
     1  C   -0.002379
     2  C   -0.005493
     3  C    0.015744
     4  C    0.015744
     5  C   -0.005493
     6  C   -0.002380
     7  H    0.000000
     8  H    0.000000
     9  H    0.000000
    10  C   -0.005490
    11  C   -0.005492
    12  H    0.000000
    13  H    0.000000
    14  C   -0.002379
    15  C   -0.002382
    16  H    0.000000
    17  H    0.000000
    18  H    0.000000
    19  C   -0.002379
    20  C   -0.005493
    21  C    0.015744
    22  C    0.015744
    23  C   -0.005493
    24  C   -0.002380
    25  H    0.000000
    26  H    0.000000
    27  H    0.000000
    28  C   -0.005490
    29  C   -0.005492
    30  H    0.000000
    31  H    0.000000
    32  C   -0.002379
    33  C   -0.002382
    34  H    0.000000
    35  H    0.000000
    36  H    0.000000
 Sum of Mulliken charges=   0.00000
 Electronic spatial extent (au):  <R**2>=  6748.1808
 Charge=   -61.4300 electrons
 Dipole moment (field-independent basis, Debye):
    X=     0.0009    Y=     0.0003    Z=  -516.3567  Tot=   516.3567
 Quadrupole moment (field-independent basis, Debye-Ang):
   XX= -1240.2688   YY=  -646.2600   ZZ= -2002.5159
   XY=    -0.0017   XZ=     0.0015   YZ=     0.0006
 Traceless Quadrupole moment (field-independent basis, Debye-Ang):
   XX=    56.0794   YY=   650.0883   ZZ=  -706.1677
   XY=    -0.0017   XZ=     0.0015   YZ=     0.0006
 Octapole moment (field-independent basis, Debye-Ang**2):
  XXX=     0.0094  YYY=     0.0027  ZZZ= -7350.5241  XYY=     0.0002
  XXY=    -0.0004  XXZ= -2170.4704  XZZ=     0.0056  YZZ=     0.0022
  YYZ= -1130.9549  XYZ=    -0.0029
 Hexadecapole moment (field-independent basis, Debye-Ang**3):
 XXXX=-10919.8112 YYYY= -3171.4658 ZZZZ=-29493.1607 XXXY=    -0.0170
 XXXZ=     0.0165 YYYX=    -0.0090 YYYZ=     0.0048 ZZZX=     0.0200
 ZZZY=     0.0080 XXYY= -2231.5489 XXZZ= -8322.3986 YYZZ= -4297.1398
 XXYZ=    -0.0008 YYXZ=     0.0004 ZZXY=    -0.0117
 N-N= 5.617563032595D+02 E-N= 0.000000000000D+00  KE=-1.297639899046D+03

 Test job not archived.
 1\1\GINC-RHUBARB\SP\RZINDO\STO-3G\C20H16\JK905\10-Oct-2007\0\\# ZINDO 
 PUNCH=MO IOP(3/33=1) NOSYMM\\04/10/07: Geometry from napthalene_b3lyp_
 of.log and reorientated to put long axi geometric centre on origin.\\0
 ,1\C,0,-2.4336,-0.70848,0.\C,0,-1.24478,-1.40258,0.\C,0,-0.0000018091,
 -0.716892,0.\C,0,0.0000023856,0.716891,0.\C,0,-1.24476,1.40257,0.\C,0,
 -2.4336,0.708481,0.\H,0,1.24204,-2.49027,0.\H,0,-3.37834,-1.24559,0.\H
 ,0,-1.24204,-2.49028,0.\C,0,1.24476,-1.40258,0.\C,0,1.24478,1.40258,0.
 \H,0,-1.24204,2.49027,0.\H,0,-3.37833,1.24559,0.\C,0,2.4336,0.708481,0
 .\C,0,2.43359,-0.70848,0.\H,0,1.24203,2.49028,0.\H,0,3.37835,1.24559,0
 .\H,0,3.37834,-1.24559,0.\C,0,-2.4336,-0.70848,3.5\C,0,-1.24478,-1.402
 58,3.5\C,0,-0.0000018091,-0.716892,3.5\C,0,0.0000023856,0.716891,3.5\C
 ,0,-1.24476,1.40257,3.5\C,0,-2.4336,0.708481,3.5\H,0,1.24204,-2.49027,
 3.5\H,0,-3.37834,-1.24559,3.5\H,0,-1.24204,-2.49028,3.5\C,0,1.24476,-1
 .40258,3.5\C,0,1.24478,1.40258,3.5\H,0,-1.24204,2.49027,3.5\H,0,-3.378
 33,1.24559,3.5\C,0,2.4336,0.708481,3.5\C,0,2.43359,-0.70848,3.5\H,0,1.
 24203,2.49028,3.5\H,0,3.37835,1.24559,3.5\H,0,3.37834,-1.24559,3.5\\Ve
 rsion=x86_64-Linux-G03RevB.05\HF=-123.3551689\RMSD=1.567e-09\PG=CS [X(
 C20H16)]\\@


 My opinions may have changed, but not the fact that I am right.
                       -- Ashleigh Brilliant
 Job cpu time:  0 days  0 hours  0 minutes  3.8 seconds.
 File lengths (MBytes):  RWF=     36 Int=      0 D2E=      0 Chk=     11 Scr=      1
 Normal termination of Gaussian 03 at Wed Oct 10 10:14:39 2007.
