 Entering Gaussian System, Link 0=g03
 Input=3_1.com
 Output=3_1.log
 Initial command:
 /usr/local/g03/l1.exe /export/home/joe2/code/svnJ/J_from_g03/examples/naphthalene_zindo/Gau-12503.inp -scrdir=/export/home/joe2/code/svnJ/J_from_g03/examples/naphthalene_zindo/
 Entering Link 1 = /usr/local/g03/l1.exe PID=     12504.
  
 Copyright (c) 1988,1990,1992,1993,1995,1998,2003, Gaussian, Inc.
                  All Rights Reserved.
  
 This is the Gaussian(R) 03 program.  It is based on the
 the Gaussian(R) 98 system (copyright 1998, Gaussian, Inc.),
 the Gaussian(R) 94 system (copyright 1995, Gaussian, Inc.),
 the Gaussian 92(TM) system (copyright 1992, Gaussian, Inc.),
 the Gaussian 90(TM) system (copyright 1990, Gaussian, Inc.),
 the Gaussian 88(TM) system (copyright 1988, Gaussian, Inc.),
 the Gaussian 86(TM) system (copyright 1986, Carnegie Mellon
 University), and the Gaussian 82(TM) system (copyright 1983,
 Carnegie Mellon University). Gaussian is a federally registered
 trademark of Gaussian, Inc.
  
 This software contains proprietary and confidential information,
 including trade secrets, belonging to Gaussian, Inc.
  
 This software is provided under written license and may be
 used, copied, transmitted, or stored only in accord with that
 written license.
  
 The following legend is applicable only to US Government
 contracts under DFARS:
  
                    RESTRICTED RIGHTS LEGEND
  
 Use, duplication or disclosure by the US Government is subject
 to restrictions as set forth in subparagraph (c)(1)(ii) of the
 Rights in Technical Data and Computer Software clause at DFARS
 252.227-7013.
  
 Gaussian, Inc.
 Carnegie Office Park, Building 6, Pittsburgh, PA 15106 USA
  
 The following legend is applicable only to US Government
 contracts under FAR:
  
                    RESTRICTED RIGHTS LEGEND
  
 Use, reproduction and disclosure by the US Government is subject
 to restrictions as set forth in subparagraph (c) of the
 Commercial Computer Software - Restricted Rights clause at FAR
 52.227-19.
  
 Gaussian, Inc.
 Carnegie Office Park, Building 6, Pittsburgh, PA 15106 USA
  
  
 ---------------------------------------------------------------
 Warning -- This program may not be used in any manner that
 competes with the business of Gaussian, Inc. or will provide
 assistance to any competitor of Gaussian, Inc.  The licensee
 of this program is prohibited from giving any competitor of
 Gaussian, Inc. access to this program.  By using this program,
 the user acknowledges that Gaussian, Inc. is engaged in the
 business of creating and licensing software in the field of
 computational chemistry and represents and warrants to the
 licensee that it is not a competitor of Gaussian, Inc. and that
 it will not use this program in any manner prohibited above.
 ---------------------------------------------------------------
  

 Cite this work as:
 Gaussian 03, Revision B.05,
 M. J. Frisch, G. W. Trucks, H. B. Schlegel, G. E. Scuseria, 
 M. A. Robb, J. R. Cheeseman, J. A. Montgomery, Jr., T. Vreven, 
 K. N. Kudin, J. C. Burant, J. M. Millam, S. S. Iyengar, J. Tomasi, 
 V. Barone, B. Mennucci, M. Cossi, G. Scalmani, N. Rega, 
 G. A. Petersson, H. Nakatsuji, M. Hada, M. Ehara, K. Toyota, 
 R. Fukuda, J. Hasegawa, M. Ishida, T. Nakajima, Y. Honda, O. Kitao, 
 H. Nakai, M. Klene, X. Li, J. E. Knox, H. P. Hratchian, J. B. Cross, 
 C. Adamo, J. Jaramillo, R. Gomperts, R. E. Stratmann, O. Yazyev, 
 A. J. Austin, R. Cammi, C. Pomelli, J. W. Ochterski, P. Y. Ayala, 
 K. Morokuma, G. A. Voth, P. Salvador, J. J. Dannenberg, 
 V. G. Zakrzewski, S. Dapprich, A. D. Daniels, M. C. Strain, 
 O. Farkas, D. K. Malick, A. D. Rabuck, K. Raghavachari, 
 J. B. Foresman, J. V. Ortiz, Q. Cui, A. G. Baboul, S. Clifford, 
 J. Cioslowski, B. B. Stefanov, G. Liu, A. Liashenko, P. Piskorz, 
 I. Komaromi, R. L. Martin, D. J. Fox, T. Keith, M. A. Al-Laham, 
 C. Y. Peng, A. Nanayakkara, M. Challacombe, P. M. W. Gill, 
 B. Johnson, W. Chen, M. W. Wong, C. Gonzalez, and J. A. Pople, 
 Gaussian, Inc., Pittsburgh PA, 2003.
 
 *************************************************
 Gaussian 03:  x86_64-Linux-G03RevB.05  8-Nov-2003
                    10-Oct-2007 
 *************************************************
 -----------------------------------
 # zindo punch=mo iop(3/33=1) nosymm
 -----------------------------------
 1/30=1,38=1/1;
 2/15=1,17=6,18=5,40=1/2;
 3/5=2,12=3,16=1,25=1,33=1,41=400000/1,2,8,3;
 4/5=3,11=1,35=1/1;
 5/5=2,35=1,38=5/2;
 8/6=1/1;
 9/42=1,49=10/14;
 6/7=2,8=2,9=2,10=2/1;
 99/5=1,9=1,10=32/99;
 ----------------------------------------------------------------------
 04/10/07: Geometry from napthalene_b3lyp_of.log and reorientated to pu
 t long axi geometric centre on 3
 ----------------------------------------------------------------------
 Symbolic Z-matrix:
 Charge =  0 Multiplicity = 1
 C                    -2.4336   -0.70848   3. 
 C                    -1.24478  -1.40258   3. 
 C                    0.        -0.71689   3. 
 C                     0.        0.71689   3. 
 C                    -1.24476   1.40257   3. 
 C                    -2.4336    0.70848   3. 
 H                     1.24204  -2.49027   3. 
 H                    -3.37834  -1.24559   3. 
 H                    -1.24204  -2.49028   3. 
 C                     1.24476  -1.40258   3. 
 C                     1.24478   1.40258   3. 
 H                    -1.24204   2.49027   3. 
 H                    -3.37833   1.24559   3. 
 C                     2.4336    0.70848   3. 
 C                     2.43359  -0.70848   3. 
 H                     1.24203   2.49028   3. 
 H                     3.37835   1.24559   3. 
 H                     3.37834  -1.24559   3. 
 
                          Input orientation:                          
 ---------------------------------------------------------------------
 Center     Atomic     Atomic              Coordinates (Angstroms)
 Number     Number      Type              X           Y           Z
 ---------------------------------------------------------------------
    1          6             0       -2.433600   -0.708480    3.000000
    2          6             0       -1.244780   -1.402580    3.000000
    3          6             0       -0.000002   -0.716892    3.000000
    4          6             0        0.000002    0.716891    3.000000
    5          6             0       -1.244760    1.402570    3.000000
    6          6             0       -2.433600    0.708481    3.000000
    7          1             0        1.242040   -2.490270    3.000000
    8          1             0       -3.378340   -1.245590    3.000000
    9          1             0       -1.242040   -2.490280    3.000000
   10          6             0        1.244760   -1.402580    3.000000
   11          6             0        1.244780    1.402580    3.000000
   12          1             0       -1.242040    2.490270    3.000000
   13          1             0       -3.378330    1.245590    3.000000
   14          6             0        2.433600    0.708481    3.000000
   15          6             0        2.433590   -0.708480    3.000000
   16          1             0        1.242030    2.490280    3.000000
   17          1             0        3.378350    1.245590    3.000000
   18          1             0        3.378340   -1.245590    3.000000
 ---------------------------------------------------------------------
                    Distance matrix (angstroms):
                    1          2          3          4          5
     1  C    0.000000
     2  C    1.376615   0.000000
     3  C    2.433613   1.421141   0.000000
     4  C    2.820302   2.457975   1.433783   0.000000
     5  C    2.422782   2.805150   2.457955   1.421122   0.000000
     6  C    1.416961   2.422782   2.820299   2.433617   1.376626
     7  H    4.084741   2.714285   2.165072   3.439264   4.619348
     8  H    1.086748   2.139328   3.419458   3.906985   3.400723
     9  H    2.143508   1.087703   2.165078   3.439275   3.892851
    10  C    3.743275   2.489540   1.421126   2.457962   3.750543
    11  C    4.241115   3.750578   2.457975   1.421141   2.489540
    12  H    3.413476   3.892851   3.439265   2.165073   1.087703
    13  H    2.170462   3.400712   3.906973   3.419452   2.139337
    14  C    5.069262   4.241115   2.820302   2.433612   3.743273
    15  C    4.867190   3.743285   2.433606   2.820289   4.241084
    16  H    4.872609   4.619370   3.439272   2.165073   2.714266
    17  H    6.131652   5.327864   3.906993   3.419467   4.625774
    18  H    5.836706   4.625785   3.419461   3.906981   5.327833
                    6          7          8          9         10
     6  C    0.000000
     7  H    4.872611   0.000000
     8  H    2.170467   4.785096   0.000000
     9  H    3.413486   2.484080   2.472454   0.000000
    10  C    4.241098   1.087693   4.625765   2.714271   0.000000
    11  C    3.743294   3.892851   5.327855   4.619376   2.805160
    12  H    2.143499   5.565648   4.303537   4.980550   4.619357
    13  H    1.086739   5.941756   2.491180   4.303540   5.327829
    14  C    4.867200   3.413477   6.131643   4.872618   2.422792
    15  C    5.069252   2.143494   5.836696   4.084736   1.376623
    16  H    4.084735   4.980550   5.941763   5.565661   3.892861
    17  H    5.836716   4.303542   7.201308   5.941778   3.400737
    18  H    6.131643   2.472449   6.756680   4.785098   2.139348
                   11         12         13         14         15
    11  C    0.000000
    12  H    2.714285   0.000000
    13  H    4.625775   2.472441   0.000000
    14  C    1.376614   4.084740   5.836696   0.000000
    15  C    2.422776   4.872603   6.131623   1.416961   0.000000
    16  H    1.087703   2.484070   4.785079   2.143513   3.413485
    17  H    2.139338   4.785105   6.756680   1.086756   2.170475
    18  H    3.400718   5.941764   7.201289   2.170467   1.086757
                   16         17         18
    16  H    0.000000
    17  H    2.472472   0.000000
    18  H    4.303550   2.491180   0.000000
 Symmetry turned off by external request.
 Stoichiometry    C10H8
 Framework group  CS[SG(C10H8)]
 Deg. of freedom    33
 Full point group                 CS      NOp   2
 Rotational constants (GHZ):      3.1175258      1.2299988      0.8820084
 Standard basis: VSTO-6G (5D, 7F)
                         Coordinates in L301:                         
 ---------------------------------------------------------------------
 Center     Atomic     Atomic              Coordinates (Angstroms)
 Number     Number      Type              X           Y           Z
 ---------------------------------------------------------------------
    1          6             0       -2.433600   -0.708480    3.000000
    2          6             0       -1.244780   -1.402580    3.000000
    3          6             0       -0.000002   -0.716892    3.000000
    4          6             0        0.000002    0.716891    3.000000
    5          6             0       -1.244760    1.402570    3.000000
    6          6             0       -2.433600    0.708481    3.000000
    7          1             0        1.242040   -2.490270    3.000000
    8          1             0       -3.378340   -1.245590    3.000000
    9          1             0       -1.242040   -2.490280    3.000000
   10          6             0        1.244760   -1.402580    3.000000
   11          6             0        1.244780    1.402580    3.000000
   12          1             0       -1.242040    2.490270    3.000000
   13          1             0       -3.378330    1.245590    3.000000
   14          6             0        2.433600    0.708481    3.000000
   15          6             0        2.433590   -0.708480    3.000000
   16          1             0        1.242030    2.490280    3.000000
   17          1             0        3.378350    1.245590    3.000000
   18          1             0        3.378340   -1.245590    3.000000
 ---------------------------------------------------------------------
 LdAtmC:  AtmChg=     4.000000     4.000000     4.000000     4.000000     4.000000
 LdAtmC:  AtmChg=     4.000000     1.000000     1.000000     1.000000     4.000000
 LdAtmC:  AtmChg=     4.000000     1.000000     1.000000     4.000000     4.000000
 LdAtmC:  AtmChg=     1.000000     1.000000     1.000000
 AtZEff=  -3.9000000  -3.9000000  -3.9000000  -3.9000000  -3.9000000  -3.9000000  -1.0000000  -1.0000000  -1.0000000  -3.9000000
 AtZEff=  -3.9000000  -1.0000000  -1.0000000  -3.9000000  -3.9000000  -1.0000000  -1.0000000  -1.0000000
 Integral buffers will be    131072 words long.
 Regular integral format.
 Two-electron integral symmetry is turned off.
    48 basis functions,   288 primitive gaussians,    48 cartesian basis functions
    24 alpha electrons       24 beta electrons
       nuclear repulsion energy       225.4392302010 Hartrees.
 Do NDO integrals.
 NPDir=0 NMtPBC=     1 NCelOv=     1 NCel=       1 NClECP=     1 NCelD=      1
         NCelK=      1 NCelE2=     1 NClLst=     1 CellRange=     0.0.
 One-electron integrals computed using PRISM.
 Entering OneElI...
 Calculate overlap and kinetic energy integrals
    NBasis =  48  MinDer = 0  MaxDer = 0
 Requested accuracy = 0.1000D-12
 PrsmSu:  NPrtUS=   1 ThrOK=F
 PRISM was handed     6094902 working-precision words and   406 shell-pairs
 *** Overlap *** 
                1             2             3             4             5
      1  0.100000D+01
      2  0.000000D+00  0.100000D+01
      3  0.000000D+00  0.000000D+00  0.100000D+01
      4  0.000000D+00  0.000000D+00  0.000000D+00  0.100000D+01
      5  0.418191D+00  0.363502D+00 -0.212233D+00  0.000000D+00  0.100000D+01
      6 -0.363502D+00 -0.180916D+00  0.253964D+00  0.000000D+00  0.000000D+00
      7  0.212233D+00  0.253964D+00  0.105782D+00  0.000000D+00  0.000000D+00
      8  0.000000D+00  0.000000D+00  0.000000D+00  0.254061D+00  0.000000D+00
      9  0.846391D-01  0.110523D+00 -0.382034D-03  0.000000D+00  0.396101D+00
     10 -0.110523D+00 -0.138570D+00  0.594126D-03  0.000000D+00 -0.355765D+00
     11  0.382034D-03  0.594126D-03  0.333092D-01  0.000000D+00 -0.195974D+00
     12  0.000000D+00  0.000000D+00  0.000000D+00  0.333113D-01  0.000000D+00
     13  0.416121D-01  0.490741D-01  0.287429D-01  0.000000D+00  0.810676D-01
     14 -0.490741D-01 -0.527411D-01 -0.393103D-01  0.000000D+00 -0.537875D-01
     15 -0.287429D-01 -0.393103D-01 -0.864900D-02  0.000000D+00 -0.915831D-01
     16  0.000000D+00  0.000000D+00  0.000000D+00  0.143752D-01  0.000000D+00
     17  0.862706D-01  0.551960D-01  0.980127D-01  0.000000D+00  0.428279D-01
     18 -0.551960D-01 -0.801020D-02 -0.747485D-01  0.000000D+00  0.000000D+00
     19 -0.980127D-01 -0.747485D-01 -0.986481D-01  0.000000D+00 -0.584429D-01
     20  0.000000D+00  0.000000D+00  0.000000D+00  0.340845D-01  0.000000D+00
     21  0.398147D+00  0.000000D+00  0.407575D+00  0.000000D+00  0.862707D-01
     22  0.000000D+00  0.237410D+00  0.000000D+00  0.000000D+00  0.551950D-01
     23 -0.407575D+00  0.000000D+00 -0.331866D+00  0.000000D+00 -0.980133D-01
     24  0.000000D+00  0.000000D+00  0.000000D+00  0.237410D+00  0.000000D+00
     25  0.333994D-02  0.419336D-02 -0.203276D-02  0.000000D+00  0.460693D-01
     26  0.520724D+00 -0.425568D+00 -0.241947D+00  0.000000D+00  0.122081D+00
     27  0.121262D+00  0.818767D-01 -0.122434D+00  0.000000D+00  0.520189D+00
     28  0.632579D-02  0.913905D-02 -0.172452D-02  0.000000D+00  0.766371D-01
     29 -0.913905D-02 -0.130801D-01  0.278265D-02  0.000000D+00 -0.100826D+00
     30  0.172452D-02  0.278265D-02  0.114141D-02  0.000000D+00  0.000000D+00
     31  0.000000D+00  0.000000D+00  0.000000D+00  0.166649D-02  0.000000D+00
     32  0.207463D-02  0.271691D-02  0.155926D-02  0.000000D+00  0.622624D-02
     33 -0.271691D-02 -0.344846D-02 -0.225274D-02  0.000000D+00 -0.607896D-02
     34 -0.155926D-02 -0.225274D-02 -0.816083D-03  0.000000D+00 -0.684958D-02
     35  0.000000D+00  0.000000D+00  0.000000D+00  0.476789D-03  0.000000D+00
     36  0.126733D-01  0.593732D-02  0.159388D-01  0.000000D+00  0.493725D-02
     37  0.116094D+00 -0.615787D-01  0.127369D+00  0.000000D+00  0.129872D-01
     38  0.279191D-03  0.415846D-03  0.121063D-03  0.000000D+00  0.207463D-02
     39 -0.415846D-03 -0.620709D-03 -0.195609D-03  0.000000D+00 -0.271691D-02
     40 -0.121063D-03 -0.195609D-03 -0.574568D-05  0.000000D+00 -0.155926D-02
     41  0.000000D+00  0.000000D+00  0.000000D+00  0.512010D-04  0.000000D+00
     42  0.463427D-03  0.715545D-03  0.000000D+00  0.000000D+00  0.632565D-02
     43 -0.715545D-03 -0.111338D-02  0.000000D+00  0.000000D+00 -0.913886D-02
     44  0.000000D+00  0.000000D+00  0.898024D-04  0.000000D+00 -0.172448D-02
     45  0.000000D+00  0.000000D+00  0.000000D+00  0.898024D-04  0.000000D+00
     46  0.615270D-03  0.675946D-03  0.588250D-03  0.000000D+00  0.107651D-02
     47  0.303512D-04  0.440305D-04  0.148037D-04  0.000000D+00  0.216579D-03
     48  0.635625D-04  0.960250D-04 -0.887414D-05  0.000000D+00  0.106156D-02
                6             7             8             9            10
      6  0.100000D+01
      7  0.000000D+00  0.100000D+01
      8  0.000000D+00  0.000000D+00  0.100000D+01
      9  0.355765D+00  0.195974D+00  0.000000D+00  0.100000D+01
     10 -0.199856D+00 -0.239946D+00  0.000000D+00  0.000000D+00  0.100000D+01
     11 -0.239946D+00  0.103561D+00  0.000000D+00  0.000000D+00  0.000000D+00
     12  0.000000D+00  0.000000D+00  0.235736D+00  0.000000D+00  0.000000D+00
     13  0.537875D-01  0.915831D-01  0.000000D+00  0.389948D+00  0.117580D-05
     14 -0.107884D-01 -0.722277D-01  0.000000D+00 -0.117580D-05  0.230728D+00
     15 -0.722277D-01 -0.913494D-01  0.000000D+00 -0.401898D+00 -0.164752D-05
     16  0.000000D+00  0.000000D+00  0.316316D-01  0.000000D+00  0.000000D+00
     17  0.000000D+00  0.584429D-01  0.000000D+00  0.810704D-01 -0.537887D-01
     18  0.148673D-01  0.000000D+00  0.000000D+00  0.537887D-01 -0.107874D-01
     19  0.000000D+00 -0.777017D-01  0.000000D+00 -0.915865D-01  0.722294D-01
     20  0.000000D+00  0.000000D+00  0.148673D-01  0.000000D+00  0.000000D+00
     21 -0.551950D-01  0.980133D-01  0.000000D+00  0.416123D-01 -0.490743D-01
     22 -0.800879D-02  0.747477D-01  0.000000D+00  0.490743D-01 -0.527412D-01
     23  0.747477D-01 -0.986495D-01  0.000000D+00 -0.287431D-01  0.393105D-01
     24  0.000000D+00  0.000000D+00  0.340845D-01  0.000000D+00  0.000000D+00
     25  0.541424D-01 -0.236809D-01  0.000000D+00  0.117112D+00  0.818180D-01
     26 -0.147808D+00  0.108759D-01  0.000000D+00  0.125287D-01 -0.166183D-01
     27  0.123245D-02 -0.489247D+00  0.000000D+00  0.117111D+00 -0.818167D-01
     28  0.100826D+00  0.000000D+00  0.000000D+00  0.396108D+00  0.355768D+00
     29 -0.127715D+00  0.000000D+00  0.000000D+00 -0.355768D+00 -0.199851D+00
     30  0.000000D+00  0.295730D-01  0.000000D+00  0.195978D+00  0.239950D+00
     31  0.000000D+00  0.000000D+00  0.295730D-01  0.000000D+00  0.000000D+00
     32  0.607896D-02  0.684958D-02  0.000000D+00  0.810675D-01  0.537874D-01
     33 -0.499051D-02 -0.746761D-02  0.000000D+00 -0.537874D-01 -0.107883D-01
     34 -0.746761D-02 -0.677733D-02  0.000000D+00 -0.915831D-01 -0.722276D-01
     35  0.000000D+00  0.000000D+00  0.163695D-02  0.000000D+00  0.000000D+00
     36  0.479566D-05  0.681342D-02  0.000000D+00  0.120610D-01 -0.585455D-02
     37 -0.109270D-01  0.135626D-01  0.000000D+00  0.479855D-02 -0.573066D-02
     38  0.271691D-02  0.155926D-02  0.000000D+00  0.416121D-01  0.490740D-01
     39 -0.344846D-02 -0.225274D-02  0.000000D+00 -0.490740D-01 -0.527410D-01
     40 -0.225274D-02 -0.816084D-03  0.000000D+00 -0.287429D-01 -0.393103D-01
     41  0.000000D+00  0.000000D+00  0.476788D-03  0.000000D+00  0.000000D+00
     42  0.913886D-02  0.172448D-02  0.000000D+00  0.846401D-01  0.110524D+00
     43 -0.130798D-01 -0.278258D-02  0.000000D+00 -0.110524D+00 -0.138571D+00
     44 -0.278258D-02  0.114138D-02  0.000000D+00 -0.382039D-03 -0.594133D-03
     45  0.000000D+00  0.000000D+00  0.166645D-02  0.000000D+00  0.000000D+00
     46  0.832971D-03  0.130394D-02  0.000000D+00  0.120608D-01  0.585443D-02
     47  0.279621D-03  0.160170D-03  0.000000D+00  0.479835D-02  0.573044D-02
     48  0.152544D-02  0.518003D-04  0.000000D+00  0.125287D-01  0.166182D-01
               11            12            13            14            15
     11  0.100000D+01
     12  0.000000D+00  0.100000D+01
     13  0.401898D+00  0.000000D+00  0.100000D+01
     14 -0.164752D-05  0.000000D+00  0.000000D+00  0.100000D+01
     15 -0.332405D+00  0.000000D+00  0.000000D+00  0.000000D+00  0.100000D+01
     16  0.000000D+00  0.230728D+00  0.000000D+00  0.000000D+00  0.000000D+00
     17  0.915865D-01  0.000000D+00  0.396110D+00 -0.355770D+00  0.195976D+00
     18  0.722294D-01  0.000000D+00  0.355770D+00 -0.199853D+00  0.239949D+00
     19 -0.913529D-01  0.000000D+00 -0.195976D+00  0.239949D+00  0.103567D+00
     20  0.000000D+00  0.316329D-01  0.000000D+00  0.000000D+00  0.000000D+00
     21  0.287431D-01  0.000000D+00  0.846385D-01 -0.110522D+00 -0.381940D-03
     22  0.393105D-01  0.000000D+00  0.110522D+00 -0.138569D+00 -0.593980D-03
     23 -0.864913D-02  0.000000D+00  0.381940D-03 -0.593980D-03  0.333089D-01
     24  0.000000D+00  0.143753D-01  0.000000D+00  0.000000D+00  0.000000D+00
     25 -0.116819D+00  0.000000D+00  0.120610D-01  0.585456D-02 -0.151175D-01
     26 -0.260071D-02  0.000000D+00  0.479844D-02 -0.573053D-02 -0.332887D-02
     27 -0.116818D+00  0.000000D+00  0.120608D-01 -0.585444D-02 -0.151172D-01
     28 -0.195978D+00  0.000000D+00  0.810694D-01  0.537878D-01 -0.915855D-01
     29  0.239950D+00  0.000000D+00 -0.537878D-01 -0.107871D-01  0.722284D-01
     30  0.103563D+00  0.000000D+00  0.915855D-01  0.722284D-01 -0.913522D-01
     31  0.000000D+00  0.235741D+00  0.000000D+00  0.000000D+00  0.000000D+00
     32  0.915831D-01  0.000000D+00  0.396101D+00  0.355765D+00  0.195974D+00
     33 -0.722276D-01  0.000000D+00 -0.355765D+00 -0.199855D+00 -0.239946D+00
     34 -0.913494D-01  0.000000D+00 -0.195974D+00 -0.239946D+00  0.103561D+00
     35  0.000000D+00  0.316315D-01  0.000000D+00  0.000000D+00  0.000000D+00
     36  0.151175D-01  0.000000D+00  0.117112D+00 -0.818178D-01  0.116819D+00
     37  0.332896D-02  0.000000D+00  0.125289D-01 -0.166185D-01  0.260075D-02
     38  0.287429D-01  0.000000D+00  0.846392D-01  0.110523D+00 -0.381944D-03
     39 -0.393103D-01  0.000000D+00 -0.110523D+00 -0.138570D+00  0.593985D-03
     40 -0.864905D-02  0.000000D+00  0.381944D-03  0.593985D-03  0.333093D-01
     41  0.000000D+00  0.143752D-01  0.000000D+00  0.000000D+00  0.000000D+00
     42  0.382039D-03  0.000000D+00  0.416131D-01  0.490752D-01 -0.287437D-01
     43 -0.594133D-03  0.000000D+00 -0.490752D-01 -0.527420D-01  0.393113D-01
     44  0.333097D-01  0.000000D+00  0.287437D-01  0.393113D-01 -0.864931D-02
     45  0.000000D+00  0.333117D-01  0.000000D+00  0.000000D+00  0.000000D+00
     46  0.151173D-01  0.000000D+00  0.117112D+00  0.818169D-01  0.116820D+00
     47  0.332881D-02  0.000000D+00  0.125285D-01  0.166180D-01  0.260066D-02
     48 -0.260069D-02  0.000000D+00  0.479848D-02  0.573058D-02 -0.332890D-02
               16            17            18            19            20
     16  0.100000D+01
     17  0.000000D+00  0.100000D+01
     18  0.000000D+00  0.000000D+00  0.100000D+01
     19  0.000000D+00  0.000000D+00  0.000000D+00  0.100000D+01
     20  0.235743D+00  0.000000D+00  0.000000D+00  0.000000D+00  0.100000D+01
     21  0.000000D+00  0.418185D+00 -0.363502D+00 -0.212226D+00  0.000000D+00
     22  0.000000D+00  0.363502D+00 -0.180925D+00 -0.253958D+00  0.000000D+00
     23  0.000000D+00  0.212226D+00 -0.253958D+00  0.105785D+00  0.000000D+00
     24  0.333110D-01  0.000000D+00  0.000000D+00  0.000000D+00  0.254056D+00
     25  0.000000D+00  0.107656D-02  0.833011D-03 -0.130400D-02  0.000000D+00
     26  0.000000D+00  0.129869D-01 -0.109269D-01 -0.135622D-01  0.000000D+00
     27  0.000000D+00  0.493725D-02  0.476065D-05 -0.681342D-02  0.000000D+00
     28  0.000000D+00  0.622670D-02  0.607935D-02 -0.685011D-02  0.000000D+00
     29  0.000000D+00 -0.607935D-02 -0.499074D-02  0.746813D-02  0.000000D+00
     30  0.000000D+00  0.685011D-02  0.746813D-02 -0.677788D-02  0.000000D+00
     31  0.316324D-01  0.000000D+00  0.000000D+00  0.000000D+00  0.163708D-02
     32  0.000000D+00  0.766371D-01  0.100826D+00  0.000000D+00  0.000000D+00
     33  0.000000D+00 -0.100826D+00 -0.127715D+00  0.000000D+00  0.000000D+00
     34  0.000000D+00  0.000000D+00  0.000000D+00  0.295730D-01  0.000000D+00
     35  0.235736D+00  0.000000D+00  0.000000D+00  0.000000D+00  0.295730D-01
     36  0.000000D+00  0.520189D+00  0.122346D-02  0.489247D+00  0.000000D+00
     37  0.000000D+00  0.122080D+00 -0.147806D+00 -0.108750D-01  0.000000D+00
     38  0.000000D+00  0.632582D-02  0.913909D-02 -0.172450D-02  0.000000D+00
     39  0.000000D+00 -0.913909D-02 -0.130801D-01  0.278262D-02  0.000000D+00
     40  0.000000D+00  0.172450D-02  0.278262D-02  0.114143D-02  0.000000D+00
     41  0.333113D-01  0.000000D+00  0.000000D+00  0.000000D+00  0.166650D-02
     42  0.000000D+00  0.207478D-02  0.271710D-02 -0.155938D-02  0.000000D+00
     43  0.000000D+00 -0.271710D-02 -0.344869D-02  0.225290D-02  0.000000D+00
     44  0.000000D+00  0.155938D-02  0.225290D-02 -0.816142D-03  0.000000D+00
     45  0.143756D-01  0.000000D+00  0.000000D+00  0.000000D+00  0.476827D-03
     46  0.000000D+00  0.460708D-01  0.541439D-01  0.236823D-01  0.000000D+00
     47  0.000000D+00  0.106158D-02  0.152548D-02 -0.517983D-04  0.000000D+00
     48  0.000000D+00  0.216594D-03  0.279641D-03 -0.160181D-03  0.000000D+00
               21            22            23            24            25
     21  0.100000D+01
     22  0.000000D+00  0.100000D+01
     23  0.000000D+00  0.000000D+00  0.100000D+01
     24  0.000000D+00  0.000000D+00  0.000000D+00  0.100000D+01
     25  0.615268D-03  0.675945D-03 -0.588246D-03  0.000000D+00  0.100000D+01
     26  0.116093D+00 -0.615788D-01 -0.127368D+00  0.000000D+00  0.880750D-03
     27  0.126731D-01  0.593719D-02 -0.159385D-01  0.000000D+00  0.615645D-01
     28  0.207471D-02  0.271701D-02 -0.155933D-02  0.000000D+00  0.520195D+00
     29 -0.271701D-02 -0.344858D-02  0.225283D-02  0.000000D+00 -0.122347D-02
     30  0.155933D-02  0.225283D-02 -0.816123D-03  0.000000D+00 -0.489250D+00
     31  0.000000D+00  0.000000D+00  0.000000D+00  0.476810D-03  0.000000D+00
     32  0.632552D-02  0.913867D-02  0.172444D-02  0.000000D+00  0.493725D-02
     33 -0.913867D-02 -0.130796D-01 -0.278252D-02  0.000000D+00 -0.479566D-05
     34 -0.172444D-02 -0.278252D-02  0.114136D-02  0.000000D+00 -0.681342D-02
     35  0.000000D+00  0.000000D+00  0.000000D+00  0.166641D-02  0.000000D+00
     36  0.121264D+00  0.818782D-01  0.122436D+00  0.000000D+00  0.164370D-03
     37  0.520729D+00 -0.425570D+00  0.241950D+00  0.000000D+00  0.701853D-04
     38  0.463416D-03  0.715527D-03  0.000000D+00  0.000000D+00  0.126733D-01
     39 -0.715527D-03 -0.111335D-02  0.000000D+00  0.000000D+00 -0.593731D-02
     40  0.000000D+00  0.000000D+00  0.898000D-04  0.000000D+00 -0.159387D-01
     41  0.000000D+00  0.000000D+00  0.000000D+00  0.898000D-04  0.000000D+00
     42  0.279197D-03  0.415856D-03 -0.121066D-03  0.000000D+00  0.121265D+00
     43 -0.415856D-03 -0.620724D-03  0.195614D-03  0.000000D+00 -0.818782D-01
     44  0.121066D-03  0.195614D-03 -0.574589D-05  0.000000D+00 -0.122437D+00
     45  0.000000D+00  0.000000D+00  0.000000D+00  0.512024D-04  0.000000D+00
     46  0.333997D-02  0.419340D-02  0.203279D-02  0.000000D+00  0.585154D-03
     47  0.635610D-04  0.960227D-04  0.887390D-05  0.000000D+00  0.233178D-02
     48  0.303519D-04  0.440315D-04 -0.148041D-04  0.000000D+00  0.627495D-01
               26            27            28            29            30
     26  0.100000D+01
     27  0.627490D-01  0.100000D+01
     28  0.106161D-02  0.460704D-01  0.100000D+01
     29 -0.152551D-02 -0.541436D-01  0.000000D+00  0.100000D+01
     30  0.518028D-04 -0.236818D-01  0.000000D+00  0.000000D+00  0.100000D+01
     31  0.000000D+00  0.000000D+00  0.000000D+00  0.000000D+00  0.000000D+00
     32  0.216583D-03  0.107649D-02  0.428270D-01  0.000000D+00  0.584418D-01
     33 -0.279627D-03 -0.832964D-03  0.000000D+00  0.148670D-01  0.000000D+00
     34 -0.160173D-03 -0.130392D-02 -0.584418D-01  0.000000D+00 -0.777004D-01
     35  0.000000D+00  0.000000D+00  0.000000D+00  0.000000D+00  0.000000D+00
     36  0.233181D-02  0.585154D-03  0.107654D-02 -0.832994D-03  0.130397D-02
     37  0.608514D-01  0.233179D-02  0.216596D-03 -0.279643D-03  0.160184D-03
     38  0.303519D-04  0.615259D-03  0.862692D-01  0.551949D-01  0.980113D-01
     39 -0.440315D-04 -0.675935D-03 -0.551949D-01 -0.800992D-02 -0.747472D-01
     40 -0.148041D-04 -0.588239D-03 -0.980113D-01 -0.747472D-01 -0.986471D-01
     41  0.000000D+00  0.000000D+00  0.000000D+00  0.000000D+00  0.000000D+00
     42  0.635641D-04  0.333997D-02  0.418187D+00  0.363501D+00  0.212230D+00
     43 -0.960273D-04 -0.419339D-02 -0.363501D+00 -0.180920D+00 -0.253962D+00
     44 -0.887437D-05 -0.203279D-02 -0.212230D+00 -0.253962D+00  0.105781D+00
     45  0.000000D+00  0.000000D+00  0.000000D+00  0.000000D+00  0.000000D+00
     46  0.701843D-04  0.164365D-03  0.493715D-02 -0.477805D-05  0.681329D-02
     47  0.333018D-05  0.701818D-04  0.129865D-01  0.109266D-01  0.135619D-01
     48  0.101296D-04  0.880745D-03  0.122077D+00  0.147803D+00  0.108755D-01
               31            32            33            34            35
     31  0.100000D+01
     32  0.000000D+00  0.100000D+01
     33  0.000000D+00  0.000000D+00  0.100000D+01
     34  0.000000D+00  0.000000D+00  0.000000D+00  0.100000D+01
     35  0.148670D-01  0.000000D+00  0.000000D+00  0.000000D+00  0.100000D+01
     36  0.000000D+00  0.460693D-01 -0.541424D-01  0.236809D-01  0.000000D+00
     37  0.000000D+00  0.106158D-02 -0.152547D-02 -0.518016D-04  0.000000D+00
     38  0.000000D+00  0.418191D+00  0.363503D+00 -0.212233D+00  0.000000D+00
     39  0.000000D+00 -0.363503D+00 -0.180916D+00  0.253964D+00  0.000000D+00
     40  0.000000D+00  0.212233D+00  0.253964D+00  0.105783D+00  0.000000D+00
     41  0.340838D-01  0.000000D+00  0.000000D+00  0.000000D+00  0.254061D+00
     42  0.000000D+00  0.862716D-01  0.551952D-01 -0.980144D-01  0.000000D+00
     43  0.000000D+00 -0.551952D-01 -0.800824D-02  0.747480D-01  0.000000D+00
     44  0.000000D+00  0.980144D-01  0.747480D-01 -0.986508D-01  0.000000D+00
     45  0.254057D+00  0.000000D+00  0.000000D+00  0.000000D+00  0.340849D-01
     46  0.000000D+00  0.520189D+00 -0.123695D-02  0.489247D+00  0.000000D+00
     47  0.000000D+00  0.122079D+00  0.147806D+00 -0.108757D-01  0.000000D+00
     48  0.000000D+00  0.129870D-01  0.109269D-01 -0.135624D-01  0.000000D+00
               36            37            38            39            40
     36  0.100000D+01
     37  0.627504D-01  0.100000D+01
     38  0.333994D-02  0.635641D-04  0.100000D+01
     39 -0.419337D-02 -0.960274D-04  0.000000D+00  0.100000D+01
     40  0.203276D-02  0.887436D-05  0.000000D+00  0.000000D+00  0.100000D+01
     41  0.000000D+00  0.000000D+00  0.000000D+00  0.000000D+00  0.000000D+00
     42  0.615279D-03  0.303534D-04  0.398147D+00 -0.287640D-05 -0.407575D+00
     43 -0.675957D-03 -0.440336D-04  0.287640D-05  0.237410D+00 -0.401758D-05
     44  0.588257D-03  0.148049D-04  0.407575D+00 -0.401758D-05 -0.331866D+00
     45  0.000000D+00  0.000000D+00  0.000000D+00  0.000000D+00  0.000000D+00
     46  0.615655D-01  0.880781D-03  0.121261D+00 -0.818766D-01  0.122433D+00
     47  0.880733D-03  0.101296D-04  0.520720D+00  0.425567D+00  0.241943D+00
     48  0.701841D-04  0.333034D-05  0.116093D+00  0.615788D-01 -0.127368D+00
               41            42            43            44            45
     41  0.100000D+01
     42  0.000000D+00  0.100000D+01
     43  0.000000D+00  0.000000D+00  0.100000D+01
     44  0.000000D+00  0.000000D+00  0.000000D+00  0.100000D+01
     45  0.237410D+00  0.000000D+00  0.000000D+00  0.000000D+00  0.100000D+01
     46  0.000000D+00  0.126731D-01 -0.593720D-02  0.159385D-01  0.000000D+00
     47  0.000000D+00  0.116092D+00  0.615791D-01  0.127366D+00  0.000000D+00
     48  0.000000D+00  0.520719D+00  0.425567D+00 -0.241944D+00  0.000000D+00
               46            47            48
     46  0.100000D+01
     47  0.627472D-01  0.100000D+01
     48  0.233174D-02  0.608514D-01  0.100000D+01
 *** Kinetic Energy *** 
                1             2             3             4             5
      1  0.439983D+00
      2  0.000000D+00  0.132025D+01
      3  0.000000D+00  0.000000D+00  0.132025D+01
      4  0.000000D+00  0.000000D+00  0.000000D+00  0.132025D+01
      5  0.585706D-01  0.145306D+00 -0.848379D-01  0.000000D+00  0.439983D+00
      6 -0.145306D+00 -0.224977D+00  0.187102D+00  0.000000D+00  0.000000D+00
      7  0.848379D-01  0.187102D+00 -0.137584D-01  0.000000D+00  0.000000D+00
      8  0.000000D+00  0.000000D+00  0.000000D+00  0.954825D-01  0.000000D+00
      9 -0.150791D-01 -0.718446D-02  0.248339D-04  0.000000D+00  0.497902D-01
     10  0.718446D-02 -0.128958D-01  0.330067D-04  0.000000D+00 -0.133707D+00
     11 -0.248339D-04  0.330067D-04 -0.334701D-02  0.000000D+00 -0.736526D-01
     12  0.000000D+00  0.000000D+00  0.000000D+00 -0.334690D-02  0.000000D+00
     13 -0.113337D-01 -0.907072D-02 -0.531276D-02  0.000000D+00 -0.149555D-01
     14  0.907072D-02  0.322289D-02  0.370673D-02  0.000000D+00  0.394062D-02
     15  0.531276D-02  0.370673D-02 -0.934731D-03  0.000000D+00  0.670963D-02
     16  0.000000D+00  0.000000D+00  0.000000D+00 -0.310578D-02  0.000000D+00
     17 -0.151257D-01 -0.338356D-02 -0.600827D-02  0.000000D+00 -0.115170D-01
     18  0.338356D-02 -0.584119D-02 -0.450872D-02  0.000000D+00  0.000000D+00
     19  0.600827D-02 -0.450872D-02 -0.113083D-01  0.000000D+00  0.105531D-01
     20  0.000000D+00  0.000000D+00  0.000000D+00 -0.330210D-02  0.000000D+00
     21  0.505848D-01  0.000000D+00  0.154088D+00  0.000000D+00 -0.151257D-01
     22  0.000000D+00  0.835282D-01  0.000000D+00  0.000000D+00 -0.338350D-02
     23 -0.154088D+00  0.000000D+00 -0.314444D+00  0.000000D+00  0.600829D-02
     24  0.000000D+00  0.000000D+00  0.000000D+00  0.835282D-01  0.000000D+00
     25 -0.140641D-02 -0.157391D-02  0.762961D-03  0.000000D+00 -0.102901D-01
     26  0.113932D+00 -0.234703D+00 -0.133435D+00  0.000000D+00 -0.128477D-01
     27 -0.128823D-01  0.769983D-03 -0.115139D-02  0.000000D+00  0.113632D+00
     28 -0.290461D-02 -0.367663D-02  0.693774D-03  0.000000D+00 -0.147600D-01
     29  0.367663D-02  0.433107D-02 -0.954646D-03  0.000000D+00  0.845079D-02
     30 -0.693774D-03 -0.954646D-03 -0.547909D-03  0.000000D+00  0.000000D+00
     31  0.000000D+00  0.000000D+00  0.000000D+00 -0.728049D-03  0.000000D+00
     32 -0.115089D-02 -0.138173D-02 -0.792989D-03  0.000000D+00 -0.286754D-02
     33  0.138173D-02  0.154492D-02  0.103808D-02  0.000000D+00  0.245498D-02
     34  0.792989D-03  0.103808D-02  0.331905D-03  0.000000D+00  0.276620D-02
     35  0.000000D+00  0.000000D+00  0.000000D+00 -0.263857D-03  0.000000D+00
     36 -0.417483D-02 -0.165134D-02 -0.443303D-02  0.000000D+00 -0.194732D-02
     37 -0.130732D-01 -0.277467D-04  0.573910D-04  0.000000D+00 -0.425552D-02
     38 -0.201557D-03 -0.288545D-03 -0.840025D-04  0.000000D+00 -0.115089D-02
     39  0.288545D-03  0.409924D-03  0.130601D-03  0.000000D+00  0.138173D-02
     40  0.840025D-04  0.130601D-03  0.000000D+00  0.000000D+00  0.792989D-03
     41  0.000000D+00  0.000000D+00  0.000000D+00 -0.386852D-04  0.000000D+00
     42 -0.315260D-03 -0.463552D-03  0.000000D+00  0.000000D+00 -0.290456D-02
     43  0.463552D-03  0.678192D-03  0.000000D+00  0.000000D+00  0.367657D-02
     44  0.000000D+00  0.000000D+00 -0.633777D-04  0.000000D+00  0.693761D-03
     45  0.000000D+00  0.000000D+00  0.000000D+00 -0.633777D-04  0.000000D+00
     46 -0.332206D-03 -0.336535D-03 -0.292873D-03  0.000000D+00 -0.538299D-03
     47 -0.229002D-04 -0.319801D-04 -0.107522D-04  0.000000D+00 -0.133173D-03
     48 -0.446375D-04 -0.643252D-04  0.594461D-05  0.000000D+00 -0.531877D-03
                6             7             8             9            10
      6  0.132025D+01
      7  0.000000D+00  0.132025D+01
      8  0.000000D+00  0.000000D+00  0.132025D+01
      9  0.133707D+00  0.736526D-01  0.000000D+00  0.439983D+00
     10 -0.220488D+00 -0.166825D+00  0.000000D+00  0.000000D+00  0.132025D+01
     11 -0.166825D+00 -0.953498D-02  0.000000D+00  0.000000D+00  0.000000D+00
     12  0.000000D+00  0.000000D+00  0.823608D-01  0.000000D+00  0.000000D+00
     13 -0.394062D-02 -0.670963D-02  0.000000D+00  0.474237D-01  0.000000D+00
     14 -0.533853D-02 -0.324730D-02  0.000000D+00  0.000000D+00  0.789076D-01
     15 -0.324730D-02 -0.896050D-02  0.000000D+00 -0.148339D+00 -0.112653D-05
     16  0.000000D+00  0.000000D+00 -0.343137D-02  0.000000D+00  0.000000D+00
     17  0.000000D+00 -0.105531D-01  0.000000D+00 -0.149556D-01  0.394034D-02
     18 -0.315090D-02  0.000000D+00  0.000000D+00 -0.394034D-02 -0.533886D-02
     19  0.000000D+00  0.509848D-02  0.000000D+00  0.670926D-02  0.324801D-02
     20  0.000000D+00  0.000000D+00 -0.315090D-02  0.000000D+00  0.000000D+00
     21  0.338350D-02 -0.600829D-02  0.000000D+00 -0.113338D-01  0.907072D-02
     22 -0.584111D-02  0.450868D-02  0.000000D+00 -0.907072D-02  0.322284D-02
     23  0.450868D-02 -0.113084D-01  0.000000D+00  0.531277D-02 -0.370671D-02
     24  0.000000D+00  0.000000D+00 -0.330210D-02  0.000000D+00  0.000000D+00
     25 -0.810555D-02  0.354522D-02  0.000000D+00 -0.130394D-01  0.182314D-03
     26 -0.159735D-02  0.117535D-03  0.000000D+00 -0.413743D-02  0.463716D-02
     27  0.678790D-03 -0.269460D+00  0.000000D+00 -0.130394D-01 -0.182146D-03
     28 -0.845079D-02  0.000000D+00  0.000000D+00  0.497929D-01  0.133711D+00
     29 -0.846056D-02  0.000000D+00  0.000000D+00 -0.133711D+00 -0.220491D+00
     30  0.000000D+00 -0.351014D-02  0.000000D+00  0.736557D-01  0.166831D+00
     31  0.000000D+00  0.000000D+00 -0.351014D-02  0.000000D+00  0.000000D+00
     32 -0.245498D-02 -0.276620D-02  0.000000D+00 -0.149555D-01 -0.394063D-02
     33  0.156714D-02  0.257470D-02  0.000000D+00  0.394063D-02 -0.533852D-02
     34  0.257470D-02  0.218320D-02  0.000000D+00  0.670965D-02 -0.324728D-02
     35  0.000000D+00  0.000000D+00 -0.717889D-03  0.000000D+00  0.000000D+00
     36 -0.166771D-05 -0.236939D-02  0.000000D+00 -0.401556D-02  0.165122D-02
     37  0.301781D-02 -0.374572D-02  0.000000D+00 -0.190193D-02  0.200441D-02
     38 -0.138173D-02 -0.792989D-03  0.000000D+00 -0.113337D-01 -0.907071D-02
     39  0.154492D-02  0.103807D-02  0.000000D+00  0.907071D-02  0.322289D-02
     40  0.103807D-02  0.331905D-03  0.000000D+00  0.531276D-02  0.370673D-02
     41  0.000000D+00  0.000000D+00 -0.263857D-03  0.000000D+00  0.000000D+00
     42 -0.367657D-02 -0.693761D-03  0.000000D+00 -0.150791D-01 -0.718430D-02
     43  0.433101D-02  0.954630D-03  0.000000D+00  0.718430D-02 -0.128963D-01
     44  0.954630D-03 -0.547898D-03  0.000000D+00  0.248334D-04 -0.330087D-04
     45  0.000000D+00  0.000000D+00 -0.728035D-03  0.000000D+00  0.000000D+00
     46 -0.380256D-03 -0.595253D-03  0.000000D+00 -0.401552D-02 -0.165120D-02
     47 -0.161232D-03 -0.923553D-04  0.000000D+00 -0.190186D-02 -0.200435D-02
     48 -0.697935D-03 -0.237002D-04  0.000000D+00 -0.413741D-02 -0.463714D-02
               11            12            13            14            15
     11  0.132025D+01
     12  0.000000D+00  0.132025D+01
     13  0.148339D+00  0.000000D+00  0.439983D+00
     14 -0.112653D-05  0.000000D+00  0.000000D+00  0.132025D+01
     15 -0.306148D+00  0.000000D+00  0.000000D+00  0.000000D+00  0.132025D+01
     16  0.000000D+00  0.789076D-01  0.000000D+00  0.000000D+00  0.000000D+00
     17 -0.670926D-02  0.000000D+00  0.497936D-01 -0.133712D+00  0.736556D-01
     18  0.324801D-02  0.000000D+00  0.133712D+00 -0.220494D+00  0.166831D+00
     19 -0.896172D-02  0.000000D+00 -0.736556D-01  0.166831D+00 -0.953313D-02
     20  0.000000D+00 -0.343131D-02  0.000000D+00  0.000000D+00  0.000000D+00
     21 -0.531277D-02  0.000000D+00 -0.150791D-01  0.718457D-02  0.248283D-04
     22 -0.370671D-02  0.000000D+00 -0.718457D-02 -0.128954D-01 -0.329974D-04
     23 -0.934739D-03  0.000000D+00 -0.248283D-04 -0.329974D-04 -0.334703D-02
     24  0.000000D+00 -0.310578D-02  0.000000D+00  0.000000D+00  0.000000D+00
     25 -0.260307D-03  0.000000D+00 -0.401557D-02 -0.165123D-02  0.426376D-02
     26  0.725700D-03  0.000000D+00 -0.190189D-02  0.200437D-02  0.116434D-02
     27 -0.260069D-03  0.000000D+00 -0.401550D-02  0.165120D-02  0.426370D-02
     28 -0.736557D-01  0.000000D+00 -0.149555D-01 -0.394042D-02  0.670942D-02
     29  0.166831D+00  0.000000D+00  0.394042D-02 -0.533871D-02  0.324773D-02
     30 -0.953543D-02  0.000000D+00 -0.670942D-02  0.324773D-02 -0.896129D-02
     31  0.000000D+00  0.823647D-01  0.000000D+00  0.000000D+00  0.000000D+00
     32 -0.670965D-02  0.000000D+00  0.497902D-01  0.133707D+00  0.736527D-01
     33 -0.324728D-02  0.000000D+00 -0.133707D+00 -0.220488D+00 -0.166825D+00
     34 -0.896047D-02  0.000000D+00 -0.736527D-01 -0.166825D+00 -0.953525D-02
     35  0.000000D+00 -0.343137D-02  0.000000D+00  0.000000D+00  0.000000D+00
     36 -0.426375D-02  0.000000D+00 -0.130394D-01 -0.182283D-03  0.260262D-03
     37 -0.116437D-02  0.000000D+00 -0.413747D-02  0.463720D-02 -0.725708D-03
     38 -0.531276D-02  0.000000D+00 -0.150791D-01 -0.718445D-02  0.248279D-04
     39  0.370673D-02  0.000000D+00  0.718445D-02 -0.128958D-01  0.329990D-04
     40 -0.934722D-03  0.000000D+00 -0.248279D-04  0.329990D-04 -0.334701D-02
     41  0.000000D+00 -0.310577D-02  0.000000D+00  0.000000D+00  0.000000D+00
     42 -0.248334D-04  0.000000D+00 -0.113339D-01 -0.907074D-02  0.531280D-02
     43 -0.330087D-04  0.000000D+00  0.907074D-02  0.322268D-02 -0.370665D-02
     44 -0.334699D-02  0.000000D+00 -0.531280D-02 -0.370665D-02 -0.934801D-03
     45  0.000000D+00 -0.334688D-02  0.000000D+00  0.000000D+00  0.000000D+00
     46 -0.426372D-02  0.000000D+00 -0.130394D-01  0.182288D-03  0.260275D-03
     47 -0.116432D-02  0.000000D+00 -0.413738D-02 -0.463711D-02 -0.725690D-03
     48  0.725696D-03  0.000000D+00 -0.190190D-02 -0.200439D-02  0.116435D-02
               16            17            18            19            20
     16  0.132025D+01
     17  0.000000D+00  0.439983D+00
     18  0.000000D+00  0.000000D+00  0.132025D+01
     19  0.000000D+00  0.000000D+00  0.000000D+00  0.132025D+01
     20  0.823658D-01  0.000000D+00  0.000000D+00  0.000000D+00  0.132025D+01
     21  0.000000D+00  0.585682D-01 -0.145304D+00 -0.848337D-01  0.000000D+00
     22  0.000000D+00  0.145304D+00 -0.224979D+00 -0.187095D+00  0.000000D+00
     23  0.000000D+00  0.848337D-01 -0.187095D+00 -0.137543D-01  0.000000D+00
     24 -0.334692D-02  0.000000D+00  0.000000D+00  0.000000D+00  0.954789D-01
     25  0.000000D+00 -0.538321D-03 -0.380271D-03  0.595277D-03  0.000000D+00
     26  0.000000D+00 -0.425545D-02  0.301780D-02  0.374564D-02  0.000000D+00
     27  0.000000D+00 -0.194732D-02 -0.165553D-05  0.236939D-02  0.000000D+00
     28  0.000000D+00 -0.286771D-02 -0.245510D-02  0.276636D-02  0.000000D+00
     29  0.000000D+00  0.245510D-02  0.156717D-02 -0.257482D-02  0.000000D+00
     30  0.000000D+00 -0.276636D-02 -0.257482D-02  0.218333D-02  0.000000D+00
     31 -0.343133D-02  0.000000D+00  0.000000D+00  0.000000D+00 -0.717936D-03
     32  0.000000D+00 -0.147600D-01 -0.845079D-02  0.000000D+00  0.000000D+00
     33  0.000000D+00  0.845079D-02 -0.846056D-02  0.000000D+00  0.000000D+00
     34  0.000000D+00  0.000000D+00  0.000000D+00 -0.351014D-02  0.000000D+00
     35  0.823608D-01  0.000000D+00  0.000000D+00  0.000000D+00 -0.351014D-02
     36  0.000000D+00  0.113632D+00  0.673836D-03  0.269460D+00  0.000000D+00
     37  0.000000D+00 -0.128478D-01 -0.159687D-02 -0.117492D-03  0.000000D+00
     38  0.000000D+00 -0.290462D-02 -0.367665D-02  0.693765D-03  0.000000D+00
     39  0.000000D+00  0.367665D-02  0.433108D-02 -0.954634D-03  0.000000D+00
     40  0.000000D+00 -0.693765D-03 -0.954634D-03 -0.547917D-03  0.000000D+00
     41 -0.334690D-02  0.000000D+00  0.000000D+00  0.000000D+00 -0.728051D-03
     42  0.000000D+00 -0.115096D-02 -0.138181D-02  0.793037D-03  0.000000D+00
     43  0.000000D+00  0.138181D-02  0.154499D-02 -0.103813D-02  0.000000D+00
     44  0.000000D+00 -0.793037D-03 -0.103813D-02  0.331922D-03  0.000000D+00
     45 -0.310581D-02  0.000000D+00  0.000000D+00  0.000000D+00 -0.263875D-03
     46  0.000000D+00 -0.102903D-01 -0.810553D-02 -0.354532D-02  0.000000D+00
     47  0.000000D+00 -0.531887D-03 -0.697948D-03  0.236992D-04  0.000000D+00
     48  0.000000D+00 -0.133181D-03 -0.161242D-03  0.923612D-04  0.000000D+00
               21            22            23            24            25
     21  0.439983D+00
     22  0.000000D+00  0.132025D+01
     23  0.000000D+00  0.000000D+00  0.132025D+01
     24  0.000000D+00  0.000000D+00  0.000000D+00  0.132025D+01
     25 -0.332205D-03 -0.336535D-03  0.292872D-03  0.000000D+00  0.719740D+00
     26 -0.130732D-01 -0.276402D-04 -0.571701D-04  0.000000D+00 -0.397129D-03
     27 -0.417476D-02 -0.165131D-02  0.443297D-02  0.000000D+00 -0.101812D-01
     28 -0.115093D-02 -0.138177D-02  0.793018D-03  0.000000D+00  0.113635D+00
     29  0.138177D-02  0.154496D-02 -0.103811D-02  0.000000D+00 -0.673856D-03
     30 -0.793018D-03 -0.103811D-02  0.331918D-03  0.000000D+00 -0.269465D+00
     31  0.000000D+00  0.000000D+00  0.000000D+00 -0.263867D-03  0.000000D+00
     32 -0.290451D-02 -0.367652D-02 -0.693748D-03  0.000000D+00 -0.194732D-02
     33  0.367652D-02  0.433096D-02  0.954614D-03  0.000000D+00  0.166771D-05
     34  0.693748D-03  0.954614D-03 -0.547889D-03  0.000000D+00  0.236939D-02
     35  0.000000D+00  0.000000D+00  0.000000D+00 -0.728021D-03  0.000000D+00
     36 -0.128823D-01  0.770248D-03  0.115178D-02  0.000000D+00 -0.913410D-04
     37  0.113935D+00 -0.234707D+00  0.133438D+00  0.000000D+00 -0.424502D-04
     38 -0.315253D-03 -0.463543D-03  0.000000D+00  0.000000D+00 -0.417482D-02
     39  0.463543D-03  0.678179D-03  0.000000D+00  0.000000D+00  0.165134D-02
     40  0.000000D+00  0.000000D+00 -0.633762D-04  0.000000D+00  0.443303D-02
     41  0.000000D+00  0.000000D+00  0.000000D+00 -0.633762D-04  0.000000D+00
     42 -0.201561D-03 -0.288551D-03  0.840044D-04  0.000000D+00 -0.128822D-01
     43  0.288551D-03  0.409932D-03 -0.130604D-03  0.000000D+00 -0.770378D-03
     44 -0.840044D-04 -0.130604D-03  0.000000D+00  0.000000D+00 -0.115199D-02
     45  0.000000D+00  0.000000D+00  0.000000D+00 -0.386861D-04  0.000000D+00
     46 -0.140642D-02 -0.157392D-02 -0.762972D-03  0.000000D+00 -0.279335D-03
     47 -0.446365D-04 -0.643238D-04 -0.594446D-05  0.000000D+00 -0.901829D-03
     48 -0.229007D-04 -0.319807D-04  0.107525D-04  0.000000D+00 -0.102632D-01
               26            27            28            29            30
     26  0.719740D+00
     27 -0.102632D-01  0.719740D+00
     28 -0.531897D-03 -0.102902D-01  0.439983D+00
     29  0.697960D-03  0.810554D-02  0.000000D+00  0.132025D+01
     30 -0.237011D-04  0.354528D-02  0.000000D+00  0.000000D+00  0.132025D+01
     31  0.000000D+00  0.000000D+00  0.000000D+00  0.000000D+00  0.000000D+00
     32 -0.133175D-03 -0.538293D-03 -0.115169D-01  0.000000D+00 -0.105531D-01
     33  0.161235D-03  0.380253D-03  0.000000D+00 -0.315087D-02  0.000000D+00
     34  0.923571D-04  0.595247D-03  0.105531D-01  0.000000D+00  0.509868D-02
     35  0.000000D+00  0.000000D+00  0.000000D+00  0.000000D+00  0.000000D+00
     36 -0.901836D-03 -0.279335D-03 -0.538313D-03  0.380265D-03 -0.595268D-03
     37 -0.101303D-01 -0.901831D-03 -0.133182D-03  0.161243D-03 -0.923623D-04
     38 -0.229007D-04 -0.332201D-03 -0.151257D-01 -0.338368D-02 -0.600850D-02
     39  0.319807D-04  0.336530D-03  0.338368D-02 -0.584099D-02 -0.450832D-02
     40  0.107525D-04  0.292869D-03  0.600850D-02 -0.450832D-02 -0.113077D-01
     41  0.000000D+00  0.000000D+00  0.000000D+00  0.000000D+00  0.000000D+00
     42 -0.446385D-04 -0.140642D-02  0.585688D-01  0.145304D+00  0.848358D-01
     43  0.643266D-04  0.157392D-02 -0.145304D+00 -0.224976D+00 -0.187099D+00
     44  0.594474D-05  0.762972D-03 -0.848358D-01 -0.187099D+00 -0.137579D-01
     45  0.000000D+00  0.000000D+00  0.000000D+00  0.000000D+00  0.000000D+00
     46 -0.424496D-04 -0.913386D-04 -0.194729D-02  0.166159D-05 -0.236935D-02
     47 -0.259750D-05 -0.424482D-04 -0.425536D-02 -0.301775D-02 -0.374557D-02
     48 -0.722780D-05 -0.397127D-03 -0.128479D-01  0.159631D-02  0.117458D-03
               31            32            33            34            35
     31  0.132025D+01
     32  0.000000D+00  0.439983D+00
     33  0.000000D+00  0.000000D+00  0.132025D+01
     34  0.000000D+00  0.000000D+00  0.000000D+00  0.132025D+01
     35 -0.315087D-02  0.000000D+00  0.000000D+00  0.000000D+00  0.132025D+01
     36  0.000000D+00 -0.102901D-01  0.810555D-02 -0.354522D-02  0.000000D+00
     37  0.000000D+00 -0.531887D-03  0.697947D-03  0.237007D-04  0.000000D+00
     38  0.000000D+00  0.585707D-01  0.145306D+00 -0.848379D-01  0.000000D+00
     39  0.000000D+00 -0.145306D+00 -0.224977D+00  0.187102D+00  0.000000D+00
     40  0.000000D+00  0.848379D-01  0.187102D+00 -0.137581D-01  0.000000D+00
     41 -0.330214D-02  0.000000D+00  0.000000D+00  0.000000D+00  0.954827D-01
     42  0.000000D+00 -0.151258D-01 -0.338340D-02  0.600817D-02  0.000000D+00
     43  0.000000D+00  0.338340D-02 -0.584118D-02  0.450889D-02  0.000000D+00
     44  0.000000D+00 -0.600817D-02  0.450889D-02 -0.113088D-01  0.000000D+00
     45  0.954798D-01  0.000000D+00  0.000000D+00  0.000000D+00 -0.330207D-02
     46  0.000000D+00  0.113632D+00 -0.681268D-03  0.269460D+00  0.000000D+00
     47  0.000000D+00 -0.128478D-01  0.159683D-02 -0.117496D-03  0.000000D+00
     48  0.000000D+00 -0.425548D-02 -0.301779D-02  0.374568D-02  0.000000D+00
               36            37            38            39            40
     36  0.719740D+00
     37 -0.102633D-01  0.719740D+00
     38 -0.140641D-02 -0.446385D-04  0.439983D+00
     39  0.157391D-02  0.643266D-04  0.000000D+00  0.132025D+01
     40 -0.762961D-03 -0.594473D-05  0.000000D+00  0.000000D+00  0.132025D+01
     41  0.000000D+00  0.000000D+00  0.000000D+00  0.000000D+00  0.000000D+00
     42 -0.332211D-03 -0.229017D-04  0.505848D-01 -0.108746D-05 -0.154088D+00
     43  0.336539D-03  0.319821D-04  0.108746D-05  0.835282D-01 -0.280863D-05
     44 -0.292876D-03 -0.107529D-04  0.154088D+00 -0.280863D-05 -0.314444D+00
     45  0.000000D+00  0.000000D+00  0.000000D+00  0.000000D+00  0.000000D+00
     46 -0.101812D-01 -0.397141D-03 -0.128824D-01 -0.769853D-03  0.115119D-02
     47 -0.397122D-03 -0.722780D-05  0.113930D+00  0.234700D+00  0.133431D+00
     48 -0.424495D-04 -0.259761D-05 -0.130732D-01  0.276402D-04 -0.571701D-04
               41            42            43            44            45
     41  0.132025D+01
     42  0.000000D+00  0.439983D+00
     43  0.000000D+00  0.000000D+00  0.132025D+01
     44  0.000000D+00  0.000000D+00  0.000000D+00  0.132025D+01
     45  0.835282D-01  0.000000D+00  0.000000D+00  0.000000D+00  0.132025D+01
     46  0.000000D+00 -0.417477D-02  0.165131D-02 -0.443298D-02  0.000000D+00
     47  0.000000D+00 -0.130732D-01  0.274821D-04  0.568419D-04  0.000000D+00
     48  0.000000D+00  0.113929D+00  0.234699D+00 -0.133431D+00  0.000000D+00
               46            47            48
     46  0.719740D+00
     47 -0.102631D-01  0.719740D+00
     48 -0.901816D-03 -0.101303D-01  0.719740D+00
 Generate ZINDO/S integrals.
 NDO Nuclear repulsion=   160.204628805338 Hartrees.
 NBasis=    48 RedAO= F  NBF=    48
 NBsUse=    48 1.00D-04 NBFU=    48
 Dipole velocity integrals will be written to rwf   572.
 Entering OneElI...
 Calculate R x Del and Del integrals.
    NBasis =    48  MinDer = 0  MaxDer = 0
 Requested accuracy = 0.1000D-12
 PrsmSu:  NPrtUS=   1 ThrOK=F
 PRISM was handed     6111615 working-precision words and   406 shell-pairs
 Dipole Velocity for IMat=          1
                1             2             3             4             5
      1  0.000000D+00
      2 -0.469108D+00  0.000000D+00
      3  0.000000D+00  0.000000D+00  0.000000D+00
      4  0.000000D+00  0.000000D+00  0.000000D+00  0.000000D+00
      5 -0.229968D+00 -0.873394D-01  0.145465D+00  0.000000D+00  0.000000D+00
      6  0.873394D-01 -0.178821D+00 -0.121687D+00  0.000000D+00 -0.469108D+00
      7 -0.145465D+00 -0.121687D+00 -0.565698D-01  0.000000D+00  0.000000D+00
      8  0.000000D+00  0.000000D+00  0.000000D+00 -0.193620D+00  0.000000D+00
      9 -0.790499D-01 -0.952062D-01  0.412163D-03  0.000000D+00 -0.226585D+00
     10  0.952062D-01  0.105531D+00 -0.623160D-03  0.000000D+00  0.101458D+00
     11 -0.412163D-03 -0.623160D-03 -0.373723D-01  0.000000D+00  0.139200D+00
     12  0.000000D+00  0.000000D+00  0.000000D+00 -0.373749D-01  0.000000D+00
     13 -0.361601D-01 -0.376369D-01 -0.282941D-01  0.000000D+00 -0.385501D-01
     14  0.376369D-01  0.318192D-01  0.357324D-01  0.000000D+00  0.664071D-02
     15  0.282941D-01  0.357324D-01  0.113409D-01  0.000000D+00  0.502405D-01
     16  0.000000D+00  0.000000D+00  0.000000D+00 -0.145942D-01  0.000000D+00
     17 -0.394417D-01 -0.459833D-02 -0.517928D-01  0.000000D+00  0.000000D+00
     18  0.459833D-02 -0.300816D-01  0.131276D-01  0.000000D+00 -0.110249D-01
     19  0.517928D-01  0.131276D-01  0.636557D-01  0.000000D+00  0.000000D+00
     20  0.000000D+00  0.000000D+00  0.000000D+00 -0.187372D-01  0.000000D+00
     21  0.000000D+00  0.152213D+00  0.000000D+00  0.000000D+00  0.394410D-01
     22 -0.152213D+00  0.000000D+00 -0.212601D+00  0.000000D+00  0.459735D-02
     23  0.000000D+00 -0.212601D+00  0.000000D+00  0.000000D+00 -0.517923D-01
     24  0.000000D+00  0.000000D+00  0.000000D+00  0.000000D+00  0.000000D+00
     25 -0.327257D-02 -0.388006D-02  0.217354D-02  0.000000D+00 -0.395429D-01
     26  0.257762D+00 -0.622698D-01 -0.170924D+00  0.000000D+00  0.103725D+00
     27 -0.574780D-01 -0.107221D-01  0.704070D-01  0.000000D+00 -0.746645D-03
     28 -0.714162D-02 -0.997980D-02  0.213126D-02  0.000000D+00 -0.724534D-01
     29  0.997980D-02  0.136517D-01 -0.337669D-02  0.000000D+00  0.883465D-01
     30 -0.213126D-02 -0.337669D-02 -0.140876D-02  0.000000D+00  0.000000D+00
     31  0.000000D+00  0.000000D+00  0.000000D+00 -0.212147D-02  0.000000D+00
     32 -0.219744D-02 -0.272415D-02 -0.178773D-02  0.000000D+00 -0.475259D-02
     33  0.272415D-02  0.318918D-02  0.247847D-02  0.000000D+00  0.378635D-02
     34  0.178773D-02  0.247847D-02  0.104372D-02  0.000000D+00  0.572228D-02
     35  0.000000D+00  0.000000D+00  0.000000D+00 -0.564693D-03  0.000000D+00
     36 -0.448934D-02  0.277011D-03 -0.633484D-02  0.000000D+00 -0.370783D-05
     37  0.433261D-01  0.667414D-02  0.575391D-01  0.000000D+00  0.825731D-02
     38 -0.359637D-03 -0.527816D-03 -0.166822D-03  0.000000D+00 -0.219743D-02
     39  0.527816D-03  0.773593D-03  0.267746D-03  0.000000D+00  0.272414D-02
     40  0.166822D-03  0.267746D-03  0.110868D-04  0.000000D+00  0.178773D-02
     41  0.000000D+00  0.000000D+00  0.000000D+00 -0.730522D-04  0.000000D+00
     42 -0.608237D-03 -0.929233D-03  0.000000D+00  0.000000D+00 -0.714148D-02
     43  0.929233D-03  0.142748D-02  0.000000D+00  0.000000D+00  0.997961D-02
     44  0.000000D+00  0.000000D+00 -0.130814D-03  0.000000D+00  0.213122D-02
     45  0.000000D+00  0.000000D+00  0.000000D+00 -0.130814D-03  0.000000D+00
     46 -0.549917D-03 -0.548592D-03 -0.562108D-03  0.000000D+00 -0.668310D-03
     47 -0.386983D-04 -0.551522D-04 -0.198909D-04  0.000000D+00 -0.233512D-03
     48 -0.827452D-04 -0.123260D-03  0.121991D-04  0.000000D+00 -0.122432D-02
                6             7             8             9            10
      6  0.000000D+00
      7  0.000000D+00  0.000000D+00
      8  0.000000D+00  0.000000D+00  0.000000D+00
      9 -0.101458D+00 -0.139200D+00  0.000000D+00  0.000000D+00
     10 -0.142460D+00  0.125537D+00  0.000000D+00 -0.469108D+00  0.000000D+00
     11  0.125537D+00 -0.598357D-01  0.000000D+00  0.000000D+00  0.000000D+00
     12  0.000000D+00  0.000000D+00 -0.185178D+00  0.000000D+00  0.000000D+00
     13 -0.664071D-02 -0.502405D-01  0.000000D+00  0.000000D+00  0.148331D+00
     14 -0.268351D-01  0.157186D-01  0.000000D+00 -0.148331D+00 -0.182419D-05
     15  0.157186D-01  0.610117D-01  0.000000D+00  0.000000D+00 -0.207840D+00
     16  0.000000D+00  0.000000D+00 -0.180334D-01  0.000000D+00  0.000000D+00
     17  0.110249D-01  0.000000D+00  0.000000D+00  0.385509D-01 -0.663998D-02
     18  0.000000D+00 -0.174627D-01  0.000000D+00  0.663998D-02  0.268367D-01
     19 -0.174627D-01  0.000000D+00  0.000000D+00 -0.502416D-01  0.157178D-01
     20  0.000000D+00  0.000000D+00  0.000000D+00  0.000000D+00  0.000000D+00
     21 -0.459735D-02  0.517923D-01  0.000000D+00  0.361603D-01 -0.376370D-01
     22  0.300820D-01  0.131261D-01  0.000000D+00  0.376370D-01 -0.318191D-01
     23  0.131261D-01 -0.636555D-01  0.000000D+00 -0.282943D-01  0.357325D-01
     24  0.000000D+00  0.000000D+00  0.187369D-01  0.000000D+00  0.000000D+00
     25 -0.426453D-01  0.236914D-01  0.000000D+00 -0.575405D-01 -0.138239D-01
     26 -0.115753D+00  0.112147D-01  0.000000D+00  0.125689D-01 -0.160970D-01
     27  0.238021D+00  0.100194D-02  0.000000D+00  0.575397D-01 -0.138233D-01
     28 -0.883465D-01  0.000000D+00  0.000000D+00 -0.226586D+00 -0.101454D+00
     29  0.998936D-01  0.000000D+00  0.000000D+00  0.101454D+00 -0.142470D+00
     30  0.000000D+00 -0.334332D-01  0.000000D+00 -0.139202D+00 -0.125536D+00
     31  0.000000D+00  0.000000D+00 -0.334332D-01  0.000000D+00  0.000000D+00
     32 -0.378635D-02 -0.572228D-02  0.000000D+00 -0.385500D-01 -0.664067D-02
     33  0.185345D-02  0.526302D-02  0.000000D+00  0.664067D-02 -0.268351D-01
     34  0.526302D-02  0.631002D-02  0.000000D+00  0.502405D-01  0.157186D-01
     35  0.000000D+00  0.000000D+00 -0.140872D-02  0.000000D+00  0.000000D+00
     36  0.926183D-03 -0.562271D-05  0.000000D+00  0.443199D-02  0.835721D-04
     37 -0.508959D-02  0.968111D-02  0.000000D+00  0.443374D-02 -0.491771D-02
     38 -0.272414D-02 -0.178773D-02  0.000000D+00 -0.361601D-01 -0.376369D-01
     39  0.318918D-02  0.247847D-02  0.000000D+00  0.376369D-01  0.318191D-01
     40  0.247847D-02  0.104372D-02  0.000000D+00  0.282941D-01  0.357323D-01
     41  0.000000D+00  0.000000D+00 -0.564692D-03  0.000000D+00  0.000000D+00
     42 -0.997961D-02 -0.213122D-02  0.000000D+00 -0.790507D-01 -0.952070D-01
     43  0.136515D-01  0.337661D-02  0.000000D+00  0.952070D-01  0.105532D+00
     44  0.337661D-02 -0.140873D-02  0.000000D+00  0.412168D-03  0.623167D-03
     45  0.000000D+00  0.000000D+00 -0.212142D-02  0.000000D+00  0.000000D+00
     46 -0.378551D-03 -0.870053D-03  0.000000D+00 -0.443190D-02  0.835996D-04
     47 -0.288028D-03 -0.183319D-03  0.000000D+00 -0.443358D-02 -0.491755D-02
     48 -0.171604D-02 -0.642018D-04  0.000000D+00 -0.125689D-01 -0.160969D-01
               11            12            13            14            15
     11  0.000000D+00
     12  0.000000D+00  0.000000D+00
     13  0.000000D+00  0.000000D+00  0.000000D+00
     14 -0.207840D+00  0.000000D+00 -0.469108D+00  0.000000D+00
     15  0.118127D-05  0.000000D+00  0.000000D+00  0.000000D+00  0.000000D+00
     16  0.000000D+00  0.000000D+00  0.000000D+00  0.000000D+00  0.000000D+00
     17  0.502416D-01  0.000000D+00  0.226587D+00 -0.101455D+00  0.139201D+00
     18  0.157178D-01  0.000000D+00  0.101455D+00  0.142470D+00  0.125536D+00
     19 -0.610132D-01  0.000000D+00 -0.139201D+00  0.125536D+00  0.598394D-01
     20  0.000000D+00  0.180339D-01  0.000000D+00  0.000000D+00  0.000000D+00
     21  0.282943D-01  0.000000D+00  0.790494D-01 -0.952057D-01 -0.412061D-03
     22  0.357325D-01  0.000000D+00  0.952057D-01 -0.105530D+00 -0.623007D-03
     23 -0.113411D-01  0.000000D+00  0.412061D-03 -0.623007D-03  0.373720D-01
     24  0.000000D+00  0.145942D-01  0.000000D+00  0.000000D+00  0.000000D+00
     25  0.695089D-01  0.000000D+00 -0.443200D-02  0.835739D-04  0.622510D-02
     26 -0.292649D-02  0.000000D+00  0.443365D-02 -0.491762D-02 -0.337808D-02
     27 -0.695081D-01  0.000000D+00  0.443191D-02  0.835596D-04 -0.622498D-02
     28  0.139202D+00  0.000000D+00 -0.385503D-01 -0.663980D-02  0.502410D-01
     29 -0.125536D+00  0.000000D+00  0.663980D-02 -0.268363D-01 -0.157175D-01
     30 -0.598359D-01  0.000000D+00 -0.502410D-01 -0.157175D-01  0.610126D-01
     31  0.000000D+00 -0.185181D+00  0.000000D+00  0.000000D+00  0.000000D+00
     32 -0.502405D-01  0.000000D+00 -0.226585D+00 -0.101458D+00 -0.139200D+00
     33  0.157186D-01  0.000000D+00  0.101458D+00 -0.142460D+00  0.125537D+00
     34  0.610116D-01  0.000000D+00  0.139200D+00  0.125537D+00 -0.598353D-01
     35  0.000000D+00 -0.180334D-01  0.000000D+00  0.000000D+00  0.000000D+00
     36  0.622509D-02  0.000000D+00  0.575404D-01 -0.138239D-01  0.695088D-01
     37  0.337816D-02  0.000000D+00  0.125691D-01 -0.160971D-01  0.292653D-02
     38 -0.282941D-01  0.000000D+00 -0.790500D-01 -0.952063D-01  0.412065D-03
     39  0.357323D-01  0.000000D+00  0.952063D-01  0.105531D+00 -0.623013D-03
     40  0.113410D-01  0.000000D+00 -0.412065D-03 -0.623013D-03 -0.373724D-01
     41  0.000000D+00 -0.145941D-01  0.000000D+00  0.000000D+00  0.000000D+00
     42 -0.412168D-03  0.000000D+00 -0.361609D-01 -0.376375D-01  0.282948D-01
     43  0.623167D-03  0.000000D+00  0.376375D-01  0.318193D-01 -0.357331D-01
     44 -0.373728D-01  0.000000D+00 -0.282948D-01 -0.357331D-01  0.113413D-01
     45  0.000000D+00 -0.373754D-01  0.000000D+00  0.000000D+00  0.000000D+00
     46 -0.622497D-02  0.000000D+00 -0.575398D-01 -0.138227D-01 -0.695084D-01
     47 -0.337802D-02  0.000000D+00 -0.125687D-01 -0.160967D-01 -0.292643D-02
     48  0.292646D-02  0.000000D+00 -0.443368D-02 -0.491765D-02  0.337810D-02
               16            17            18            19            20
     16  0.000000D+00
     17  0.000000D+00  0.000000D+00
     18  0.000000D+00 -0.469108D+00  0.000000D+00
     19  0.000000D+00  0.000000D+00  0.000000D+00  0.000000D+00
     20  0.185182D+00  0.000000D+00  0.000000D+00  0.000000D+00  0.000000D+00
     21  0.000000D+00  0.229968D+00 -0.873456D-01 -0.145462D+00  0.000000D+00
     22  0.000000D+00  0.873456D-01  0.178809D+00 -0.121689D+00  0.000000D+00
     23  0.000000D+00  0.145462D+00 -0.121689D+00  0.565744D-01  0.000000D+00
     24  0.373746D-01  0.000000D+00  0.000000D+00  0.000000D+00  0.193619D+00
     25  0.000000D+00 -0.668341D-03 -0.378567D-03  0.870093D-03  0.000000D+00
     26  0.000000D+00  0.825723D-02 -0.508967D-02 -0.968096D-02  0.000000D+00
     27  0.000000D+00 -0.368077D-05  0.926184D-03  0.558167D-05  0.000000D+00
     28  0.000000D+00 -0.475289D-02 -0.378652D-02  0.572266D-02  0.000000D+00
     29  0.000000D+00  0.378652D-02  0.185343D-02 -0.526330D-02  0.000000D+00
     30  0.000000D+00 -0.572266D-02 -0.526330D-02  0.631047D-02  0.000000D+00
     31 -0.180336D-01  0.000000D+00  0.000000D+00  0.000000D+00 -0.140882D-02
     32  0.000000D+00 -0.724534D-01 -0.883465D-01  0.000000D+00  0.000000D+00
     33  0.000000D+00  0.883465D-01  0.998936D-01  0.000000D+00  0.000000D+00
     34  0.000000D+00  0.000000D+00  0.000000D+00 -0.334332D-01  0.000000D+00
     35 -0.185177D+00  0.000000D+00  0.000000D+00  0.000000D+00 -0.334332D-01
     36  0.000000D+00 -0.741195D-03  0.238021D+00 -0.994626D-03  0.000000D+00
     37  0.000000D+00  0.103724D+00 -0.115752D+00 -0.112138D-01  0.000000D+00
     38  0.000000D+00 -0.714166D-02 -0.997985D-02  0.213124D-02  0.000000D+00
     39  0.000000D+00  0.997985D-02  0.136518D-01 -0.337665D-02  0.000000D+00
     40  0.000000D+00 -0.213124D-02 -0.337665D-02 -0.140879D-02  0.000000D+00
     41 -0.373750D-01  0.000000D+00  0.000000D+00  0.000000D+00 -0.212148D-02
     42  0.000000D+00 -0.219758D-02 -0.272432D-02  0.178786D-02  0.000000D+00
     43  0.000000D+00  0.272432D-02  0.318937D-02 -0.247864D-02  0.000000D+00
     44  0.000000D+00 -0.178786D-02 -0.247864D-02  0.104379D-02  0.000000D+00
     45 -0.145945D-01  0.000000D+00  0.000000D+00  0.000000D+00 -0.564736D-03
     46  0.000000D+00 -0.395439D-01 -0.426461D-01 -0.236927D-01  0.000000D+00
     47  0.000000D+00 -0.122434D-02 -0.171608D-02  0.641992D-04  0.000000D+00
     48  0.000000D+00 -0.233528D-03 -0.288047D-03  0.183331D-03  0.000000D+00
               21            22            23            24            25
     21  0.000000D+00
     22 -0.469108D+00  0.000000D+00
     23  0.000000D+00  0.000000D+00  0.000000D+00
     24  0.000000D+00  0.000000D+00  0.000000D+00  0.000000D+00
     25 -0.549916D-03 -0.548593D-03  0.562106D-03  0.000000D+00  0.000000D+00
     26  0.433262D-01  0.667353D-02 -0.575391D-01  0.000000D+00  0.932442D-03
     27 -0.448925D-02  0.277011D-03  0.633471D-02  0.000000D+00  0.534376D-01
     28 -0.219751D-02 -0.272423D-02  0.178780D-02  0.000000D+00 -0.741205D-03
     29  0.272423D-02  0.318927D-02 -0.247856D-02  0.000000D+00 -0.238025D+00
     30 -0.178780D-02 -0.247856D-02  0.104377D-02  0.000000D+00  0.994637D-03
     31  0.000000D+00  0.000000D+00  0.000000D+00 -0.564715D-03  0.000000D+00
     32 -0.714134D-02 -0.997942D-02 -0.213117D-02  0.000000D+00 -0.370783D-05
     33  0.997942D-02  0.136512D-01  0.337654D-02  0.000000D+00 -0.926183D-03
     34  0.213117D-02  0.337654D-02 -0.140870D-02  0.000000D+00  0.562271D-05
     35  0.000000D+00  0.000000D+00  0.000000D+00 -0.212138D-02  0.000000D+00
     36 -0.574789D-01 -0.107225D-01 -0.704080D-01  0.000000D+00  0.864581D-04
     37  0.257763D+00 -0.622657D-01  0.170925D+00  0.000000D+00  0.663652D-04
     38 -0.608222D-03 -0.929212D-03  0.000000D+00  0.000000D+00 -0.448933D-02
     39  0.929212D-03  0.142745D-02  0.000000D+00  0.000000D+00 -0.277011D-03
     40  0.000000D+00  0.000000D+00 -0.130811D-03  0.000000D+00  0.633483D-02
     41  0.000000D+00  0.000000D+00  0.000000D+00 -0.130811D-03  0.000000D+00
     42 -0.359645D-03 -0.527828D-03  0.166827D-03  0.000000D+00 -0.574790D-01
     43  0.527828D-03  0.773610D-03 -0.267753D-03  0.000000D+00  0.107218D-01
     44 -0.166827D-03 -0.267753D-03  0.110871D-04  0.000000D+00  0.704082D-01
     45  0.000000D+00  0.000000D+00  0.000000D+00 -0.730540D-04  0.000000D+00
     46 -0.327260D-02 -0.388008D-02 -0.217357D-02  0.000000D+00  0.000000D+00
     47 -0.827433D-04 -0.123257D-03 -0.121987D-04  0.000000D+00 -0.120762D-02
     48 -0.386992D-04 -0.551534D-04  0.198914D-04  0.000000D+00 -0.469979D-01
               26            27            28            29            30
     26  0.000000D+00
     27 -0.469974D-01  0.000000D+00
     28 -0.122437D-02 -0.395437D-01  0.000000D+00
     29  0.171611D-02  0.426460D-01 -0.469108D+00  0.000000D+00
     30 -0.642047D-04  0.236922D-01  0.000000D+00  0.000000D+00  0.000000D+00
     31  0.000000D+00  0.000000D+00  0.000000D+00  0.000000D+00  0.000000D+00
     32 -0.233517D-03 -0.668304D-03  0.000000D+00  0.110247D-01  0.000000D+00
     33  0.288033D-03  0.378550D-03 -0.110247D-01  0.000000D+00 -0.174623D-01
     34  0.183322D-03  0.870045D-03  0.000000D+00 -0.174623D-01  0.000000D+00
     35  0.000000D+00  0.000000D+00  0.000000D+00  0.000000D+00  0.000000D+00
     36 -0.120762D-02  0.000000D+00  0.668328D-03 -0.378559D-03  0.870077D-03
     37  0.000000D+00  0.120761D-02  0.233530D-03 -0.288049D-03  0.183333D-03
     38 -0.386992D-04 -0.549908D-03 -0.394410D-01 -0.459817D-02 -0.517920D-01
     39  0.551534D-04  0.548584D-03  0.459817D-02 -0.300810D-01  0.131272D-01
     40  0.198914D-04  0.562098D-03  0.517920D-01  0.131272D-01  0.636549D-01
     41  0.000000D+00  0.000000D+00  0.000000D+00  0.000000D+00  0.000000D+00
     42 -0.827471D-04 -0.327260D-02 -0.229967D+00 -0.873420D-01 -0.145464D+00
     43  0.123263D-03  0.388008D-02  0.873420D-01 -0.178814D+00  0.121688D+00
     44  0.121994D-04  0.217357D-02  0.145464D+00  0.121688D+00 -0.565698D-01
     45  0.000000D+00  0.000000D+00  0.000000D+00  0.000000D+00  0.000000D+00
     46 -0.663642D-04 -0.864551D-04  0.369422D-05  0.926163D-03  0.560207D-05
     47 -0.421707D-05 -0.663620D-04 -0.825702D-02 -0.508957D-02 -0.968071D-02
     48 -0.131599D-04 -0.932437D-03 -0.103722D+00 -0.115750D+00 -0.112143D-01
               31            32            33            34            35
     31  0.000000D+00
     32  0.000000D+00  0.000000D+00
     33  0.000000D+00 -0.469108D+00  0.000000D+00
     34  0.000000D+00  0.000000D+00  0.000000D+00  0.000000D+00
     35  0.000000D+00  0.000000D+00  0.000000D+00  0.000000D+00  0.000000D+00
     36  0.000000D+00  0.395429D-01 -0.426453D-01  0.236914D-01  0.000000D+00
     37  0.000000D+00  0.122434D-02 -0.171607D-02 -0.642033D-04  0.000000D+00
     38  0.000000D+00 -0.229968D+00 -0.873395D-01  0.145464D+00  0.000000D+00
     39  0.000000D+00  0.873395D-01 -0.178821D+00 -0.121687D+00  0.000000D+00
     40  0.000000D+00 -0.145464D+00 -0.121687D+00 -0.565702D-01  0.000000D+00
     41 -0.187368D-01  0.000000D+00  0.000000D+00  0.000000D+00 -0.193621D+00
     42  0.000000D+00 -0.394412D-01 -0.459695D-02  0.517925D-01  0.000000D+00
     43  0.000000D+00  0.459695D-02 -0.300826D-01 -0.131256D-01  0.000000D+00
     44  0.000000D+00 -0.517925D-01 -0.131256D-01  0.636560D-01  0.000000D+00
     45 -0.193619D+00  0.000000D+00  0.000000D+00  0.000000D+00 -0.187370D-01
     46  0.000000D+00  0.749370D-03  0.238021D+00  0.100560D-02  0.000000D+00
     47  0.000000D+00 -0.103724D+00 -0.115752D+00  0.112145D-01  0.000000D+00
     48  0.000000D+00 -0.825723D-02 -0.508959D-02  0.968101D-02  0.000000D+00
               36            37            38            39            40
     36  0.000000D+00
     37  0.469984D-01  0.000000D+00
     38 -0.327258D-02 -0.827472D-04  0.000000D+00
     39  0.388006D-02  0.123263D-03 -0.469108D+00  0.000000D+00
     40 -0.217354D-02 -0.121994D-04  0.000000D+00  0.000000D+00  0.000000D+00
     41  0.000000D+00  0.000000D+00  0.000000D+00  0.000000D+00  0.000000D+00
     42 -0.549925D-03 -0.387010D-04  0.183083D-05  0.152213D+00 -0.232800D-05
     43  0.548601D-03  0.551559D-04 -0.152213D+00  0.450121D-05  0.212601D+00
     44 -0.562116D-03 -0.198924D-04  0.232800D-05  0.212601D+00 -0.284471D-05
     45  0.000000D+00  0.000000D+00  0.000000D+00  0.000000D+00  0.000000D+00
     46 -0.534385D-01 -0.932472D-03  0.574779D-01 -0.107227D-01  0.704068D-01
     47 -0.932425D-03 -0.131599D-04 -0.257762D+00 -0.622741D-01 -0.170922D+00
     48 -0.663641D-04 -0.421727D-05 -0.433262D-01  0.667353D-02  0.575391D-01
               41            42            43            44            45
     41  0.000000D+00
     42  0.000000D+00  0.000000D+00
     43  0.000000D+00 -0.469108D+00  0.000000D+00
     44  0.000000D+00  0.000000D+00  0.000000D+00  0.000000D+00
     45  0.150040D-05  0.000000D+00  0.000000D+00  0.000000D+00  0.000000D+00
     46  0.000000D+00  0.448925D-02  0.277011D-03  0.633472D-02  0.000000D+00
     47  0.000000D+00 -0.433265D-01  0.667233D-02 -0.575392D-01  0.000000D+00
     48  0.000000D+00 -0.257762D+00 -0.622740D-01  0.170922D+00  0.000000D+00
               46            47            48
     46  0.000000D+00
     47 -0.469963D-01  0.000000D+00
     48 -0.120760D-02  0.000000D+00  0.000000D+00
 Dipole Velocity for IMat=          2
                1             2             3             4             5
      1  0.000000D+00
      2  0.000000D+00  0.000000D+00
      3 -0.469108D+00  0.000000D+00  0.000000D+00
      4  0.000000D+00  0.000000D+00  0.000000D+00  0.000000D+00
      5  0.134268D+00  0.145465D+00  0.768747D-01  0.000000D+00  0.000000D+00
      6 -0.145465D+00 -0.121687D+00 -0.565698D-01  0.000000D+00  0.000000D+00
      7 -0.768747D-01 -0.565698D-01  0.259122D+00  0.000000D+00 -0.469108D+00
      8  0.000000D+00  0.000000D+00  0.000000D+00  0.113046D+00  0.000000D+00
      9  0.273245D-03  0.412163D-03  0.240313D-01  0.000000D+00 -0.124814D+00
     10 -0.412163D-03 -0.623160D-03 -0.373723D-01  0.000000D+00  0.139200D+00
     11 -0.240313D-01 -0.373723D-01  0.387563D-03  0.000000D+00 -0.745633D-01
     12  0.000000D+00  0.000000D+00  0.000000D+00  0.129191D-03  0.000000D+00
     13 -0.211791D-01 -0.282941D-01 -0.590102D-02  0.000000D+00 -0.656386D-01
     14  0.282941D-01  0.357324D-01  0.113409D-01  0.000000D+00  0.502405D-01
     15  0.590102D-02  0.113409D-01 -0.104533D-01  0.000000D+00  0.626778D-01
     16  0.000000D+00  0.000000D+00  0.000000D+00 -0.854786D-02  0.000000D+00
     17 -0.700375D-01 -0.517928D-01 -0.674008D-01  0.000000D+00 -0.430177D-01
     18  0.517928D-01  0.131276D-01  0.636557D-01  0.000000D+00  0.000000D+00
     19  0.674008D-01  0.636557D-01  0.464907D-01  0.000000D+00  0.555201D-01
     20  0.000000D+00  0.000000D+00  0.000000D+00 -0.332721D-01  0.000000D+00
     21 -0.259421D+00  0.000000D+00 -0.177656D+00  0.000000D+00 -0.700379D-01
     22  0.000000D+00 -0.212601D+00  0.000000D+00  0.000000D+00 -0.517923D-01
     23  0.177656D+00  0.000000D+00 -0.221188D-01  0.000000D+00  0.674018D-01
     24  0.000000D+00  0.000000D+00  0.000000D+00 -0.212601D+00  0.000000D+00
     25  0.158640D-02  0.217354D-02 -0.449923D-03  0.000000D+00  0.172953D-01
     26  0.146545D+00 -0.170924D+00  0.141199D+00  0.000000D+00 -0.763224D-02
     27  0.859497D-01  0.704070D-01 -0.689213D-01  0.000000D+00  0.296396D+00
     28  0.134761D-02  0.213126D-02  0.912598D-03  0.000000D+00  0.000000D+00
     29 -0.213126D-02 -0.337669D-02 -0.140876D-02  0.000000D+00  0.000000D+00
     30 -0.912598D-03 -0.140876D-02  0.106647D-02  0.000000D+00 -0.214316D-01
     31  0.000000D+00  0.000000D+00  0.000000D+00  0.400318D-03  0.000000D+00
     32 -0.126113D-02 -0.178773D-02 -0.635140D-03  0.000000D+00 -0.535507D-02
     33  0.178773D-02  0.247847D-02  0.104372D-02  0.000000D+00  0.572228D-02
     34  0.635140D-03  0.104372D-02 -0.491631D-04  0.000000D+00  0.515555D-02
     35  0.000000D+00  0.000000D+00  0.000000D+00 -0.324083D-03  0.000000D+00
     36 -0.120517D-01 -0.633484D-02 -0.143691D-01  0.000000D+00 -0.526790D-02
     37 -0.896154D-01  0.575391D-01 -0.845209D-01  0.000000D+00 -0.102490D-01
     38 -0.104699D-03 -0.166822D-03 -0.335398D-05  0.000000D+00 -0.126113D-02
     39  0.166822D-03  0.267746D-03  0.110868D-04  0.000000D+00  0.178773D-02
     40  0.335398D-05  0.110868D-04 -0.393069D-04  0.000000D+00  0.635140D-03
     41  0.000000D+00  0.000000D+00  0.000000D+00 -0.212673D-04  0.000000D+00
     42  0.000000D+00  0.000000D+00  0.777964D-04  0.000000D+00 -0.134758D-02
     43  0.000000D+00  0.000000D+00 -0.130814D-03  0.000000D+00  0.213122D-02
     44 -0.777964D-04 -0.130814D-03  0.000000D+00  0.000000D+00 -0.912577D-03
     45  0.000000D+00  0.000000D+00  0.000000D+00  0.000000D+00  0.000000D+00
     46 -0.478572D-03 -0.562108D-03 -0.391866D-03  0.000000D+00 -0.104617D-02
     47 -0.130110D-04 -0.198909D-04 -0.267868D-05  0.000000D+00 -0.133758D-03
     48  0.764689D-05  0.121991D-04  0.761570D-05  0.000000D+00 -0.415749D-04
                6             7             8             9            10
      6  0.000000D+00
      7  0.000000D+00  0.000000D+00
      8  0.000000D+00  0.000000D+00  0.000000D+00
      9 -0.139200D+00  0.745633D-01  0.000000D+00  0.000000D+00
     10  0.125537D+00 -0.598357D-01  0.000000D+00  0.000000D+00  0.000000D+00
     11 -0.598357D-01 -0.236971D+00  0.000000D+00 -0.469108D+00  0.000000D+00
     12  0.000000D+00  0.000000D+00 -0.102005D+00  0.000000D+00  0.000000D+00
     13 -0.502405D-01 -0.626778D-01  0.000000D+00 -0.256447D+00  0.000000D+00
     14  0.157186D-01  0.610117D-01  0.000000D+00  0.000000D+00 -0.207840D+00
     15  0.610117D-01  0.424733D-01  0.000000D+00  0.179506D+00  0.118127D-05
     16  0.000000D+00  0.000000D+00 -0.307052D-01  0.000000D+00  0.000000D+00
     17  0.000000D+00 -0.555201D-01  0.000000D+00 -0.656409D-01  0.502416D-01
     18 -0.174627D-01  0.000000D+00  0.000000D+00 -0.502416D-01  0.157178D-01
     19  0.000000D+00  0.683310D-01  0.000000D+00  0.626800D-01 -0.610132D-01
     20  0.000000D+00  0.000000D+00 -0.174627D-01  0.000000D+00  0.000000D+00
     21  0.517923D-01 -0.674018D-01  0.000000D+00 -0.211793D-01  0.282943D-01
     22  0.131261D-01 -0.636555D-01  0.000000D+00 -0.282943D-01  0.357325D-01
     23 -0.636555D-01  0.464925D-01  0.000000D+00  0.590111D-02 -0.113411D-01
     24  0.000000D+00  0.000000D+00 -0.332723D-01  0.000000D+00  0.000000D+00
     25  0.236914D-01  0.115891D-02  0.000000D+00  0.821559D-01  0.695089D-01
     26  0.112147D-01  0.358349D-01  0.000000D+00  0.196699D-02 -0.292649D-02
     27  0.100194D-02 -0.159717D+00  0.000000D+00  0.821555D-01 -0.695081D-01
     28  0.000000D+00  0.214316D-01  0.000000D+00  0.124817D+00  0.139202D+00
     29  0.000000D+00 -0.334332D-01  0.000000D+00 -0.139202D+00 -0.125536D+00
     30 -0.334332D-01  0.000000D+00  0.000000D+00 -0.745647D-01 -0.598359D-01
     31  0.000000D+00  0.000000D+00  0.000000D+00  0.000000D+00  0.000000D+00
     32 -0.572228D-02 -0.515555D-02  0.000000D+00 -0.656386D-01 -0.502405D-01
     33  0.526302D-02  0.631002D-02  0.000000D+00  0.502405D-01  0.157186D-01
     34  0.631002D-02  0.393532D-02  0.000000D+00  0.626778D-01  0.610116D-01
     35  0.000000D+00  0.000000D+00 -0.158730D-02  0.000000D+00  0.000000D+00
     36 -0.562271D-05 -0.706227D-02  0.000000D+00 -0.114442D-01  0.622509D-02
     37  0.968111D-02 -0.930605D-02  0.000000D+00 -0.257557D-02  0.337816D-02
     38 -0.178773D-02 -0.635140D-03  0.000000D+00 -0.211791D-01 -0.282941D-01
     39  0.247847D-02  0.104372D-02  0.000000D+00  0.282941D-01  0.357323D-01
     40  0.104372D-02 -0.491623D-04  0.000000D+00  0.590106D-02  0.113410D-01
     41  0.000000D+00  0.000000D+00 -0.324083D-03  0.000000D+00  0.000000D+00
     42 -0.213122D-02  0.912577D-03  0.000000D+00 -0.273248D-03 -0.412168D-03
     43  0.337661D-02 -0.140873D-02  0.000000D+00  0.412168D-03  0.623167D-03
     44 -0.140873D-02 -0.106644D-02  0.000000D+00 -0.240317D-01 -0.373728D-01
     45  0.000000D+00  0.000000D+00 -0.400308D-03  0.000000D+00  0.000000D+00
     46 -0.870053D-03 -0.118473D-02  0.000000D+00 -0.114441D-01 -0.622497D-02
     47 -0.183319D-03 -0.730002D-04  0.000000D+00 -0.257546D-02 -0.337802D-02
     48 -0.642018D-04  0.172427D-03  0.000000D+00  0.196698D-02  0.292646D-02
               11            12            13            14            15
     11  0.000000D+00
     12  0.000000D+00  0.000000D+00
     13 -0.179506D+00  0.000000D+00  0.000000D+00
     14  0.118127D-05  0.000000D+00  0.000000D+00  0.000000D+00
     15 -0.119138D-01  0.000000D+00 -0.469108D+00  0.000000D+00  0.000000D+00
     16  0.000000D+00 -0.207840D+00  0.000000D+00  0.000000D+00  0.000000D+00
     17 -0.626800D-01  0.000000D+00 -0.124816D+00  0.139201D+00  0.745671D-01
     18 -0.610132D-01  0.000000D+00 -0.139201D+00  0.125536D+00  0.598394D-01
     19  0.424748D-01  0.000000D+00 -0.745671D-01  0.598394D-01 -0.236978D+00
     20  0.000000D+00 -0.307065D-01  0.000000D+00  0.000000D+00  0.000000D+00
     21 -0.590111D-02  0.000000D+00  0.273177D-03 -0.412061D-03  0.240311D-01
     22 -0.113411D-01  0.000000D+00  0.412061D-03 -0.623007D-03  0.373720D-01
     23 -0.104533D-01  0.000000D+00 -0.240311D-01  0.373720D-01  0.387467D-03
     24  0.000000D+00 -0.854793D-02  0.000000D+00  0.000000D+00  0.000000D+00
     25 -0.643854D-01  0.000000D+00  0.114442D-01  0.622510D-02 -0.135799D-01
     26  0.214508D-02  0.000000D+00  0.257551D-02 -0.337808D-02 -0.106471D-02
     27 -0.643856D-01  0.000000D+00  0.114440D-01 -0.622498D-02 -0.135797D-01
     28  0.745647D-01  0.000000D+00  0.656403D-01  0.502410D-01 -0.626796D-01
     29 -0.598359D-01  0.000000D+00 -0.502410D-01 -0.157175D-01  0.610126D-01
[...]
     30 0.106508D-04-0.138384D+00 0.000000D+00-0.941978D-03 0.000000D+00
     31 0.000000D+00 0.000000D+00 0.000000D+00 0.000000D+00 0.000000D+00
     32 0.718816D-04 0.445050D-04 0.000000D+00 0.337000D-05 0.106407D-02
     33-0.119259D-03 0.000000D+00 0.000000D+00-0.262429D-05 0.000000D+00
     34-0.225038D-04-0.738566D-04 0.000000D+00-0.410805D-05-0.184546D-02
     35 0.000000D+00 0.000000D+00 0.000000D+00 0.000000D+00 0.000000D+00
     36 0.572664D-02 0.000000D+00 0.319400D-04 0.389056D-05 0.124247D-04
     37 0.631183D-01 0.000000D+00 0.260097D-02 0.319396D-04 0.117341D-05
     38 0.126572D-05 0.195600D-03 0.000000D+00 0.123821D-05 0.294361D-02
     39-0.171467D-05-0.118069D-03 0.000000D+00-0.126340D-05-0.249721D-02
     40 0.000000D+00-0.316956D-03 0.000000D+00-0.109949D-05-0.443438D-02
     41 0.000000D+00 0.000000D+00 0.000000D+00 0.000000D+00 0.000000D+00
     42 0.000000D+00 0.613810D-02 0.000000D+00 0.234601D-04 0.416037D-01
     43 0.000000D+00-0.591154D-02 0.000000D+00-0.340704D-04-0.622152D-01
     44 0.000000D+00-0.883985D-02 0.000000D+00-0.165160D-04-0.363244D-01
     45 0.000000D+00 0.000000D+00 0.000000D+00 0.000000D+00 0.000000D+00
     46 0.591224D-04 0.389056D-05 0.000000D+00 0.000000D+00 0.989291D-04
     47 0.000000D+00 0.319395D-04 0.000000D+00 0.000000D+00 0.335665D-03
     48 0.000000D+00 0.271283D-02 0.000000D+00 0.737197D-05 0.578125D-02
              11           12           13           14           15
      1 0.136243D-04 0.195601D-03 0.572019D-02 0.000000D+00 0.126577D-05
      2 0.185570D-04 0.118069D-03-0.431263D-02 0.000000D+00 0.171474D-05
      3 0.106500D-04 0.316957D-03 0.892020D-02 0.000000D+00 0.000000D+00
      4 0.000000D+00 0.000000D+00 0.000000D+00 0.000000D+00 0.000000D+00
      5 0.702500D-04 0.445050D-04 0.203038D-03 0.136242D-04 0.718838D-04
      6 0.786712D-04 0.000000D+00-0.220391D-03 0.185570D-04 0.119262D-03
      7 0.886443D-04 0.738566D-04 0.273550D-03 0.106500D-04 0.225046D-04
      8 0.000000D+00 0.000000D+00 0.000000D+00 0.000000D+00 0.000000D+00
      9 0.268192D-02 0.181339D-03 0.424980D-04 0.102166D-02 0.286059D-02
     10 0.234803D-02-0.113109D-03-0.608715D-04 0.152932D-02 0.494549D-02
     11 0.399796D-02 0.292066D-03 0.353605D-04 0.895731D-03 0.170947D-04
     12 0.000000D+00 0.000000D+00 0.000000D+00 0.000000D+00 0.000000D+00
     13 0.374668D-01 0.580141D-02 0.192206D-03 0.286055D-02 0.102169D-02
     14 0.568114D-01-0.576494D-02-0.328280D-03 0.494542D-02 0.152937D-02
     15 0.312947D-01 0.823113D-02 0.513749D-04-0.170903D-04-0.895765D-03
     16 0.000000D+00 0.000000D+00 0.000000D+00 0.000000D+00 0.000000D+00
     17 0.246683D-02 0.798620D-01 0.620511D-02 0.718865D-04 0.136258D-04
     18 0.426467D-02 0.346049D-03-0.107218D-01 0.119267D-03 0.185591D-04
     19 0.000000D+00 0.138381D+00-0.788872D-03-0.225051D-04-0.106513D-04
     20 0.000000D+00 0.000000D+00 0.000000D+00 0.000000D+00 0.000000D+00
     21 0.718816D-04 0.613802D-02 0.800282D-01 0.126572D-05 0.000000D+00
     22 0.119259D-03 0.591151D-02-0.120548D+00 0.171467D-05 0.000000D+00
     23 0.225038D-04 0.883972D-02 0.685355D-01 0.000000D+00 0.000000D+00
     24 0.000000D+00 0.000000D+00 0.000000D+00 0.000000D+00 0.000000D+00
     25 0.989317D-04 0.000000D+00 0.000000D+00 0.325730D-03 0.572670D-02
     26 0.117331D-05 0.319400D-04 0.260097D-02 0.000000D+00 0.000000D+00
     27 0.124239D-04 0.389056D-05 0.319396D-04 0.555473D-05 0.591223D-04
     28 0.106407D-02 0.337025D-05 0.000000D+00 0.294361D-02 0.416037D-01
     29 0.000000D+00-0.262448D-05 0.000000D+00 0.249721D-02 0.622152D-01
     30 0.184546D-02 0.410838D-05 0.000000D+00 0.443438D-02 0.363244D-01
     31 0.000000D+00 0.000000D+00 0.000000D+00 0.000000D+00 0.000000D+00
     32 0.371987D-01 0.135714D-02 0.328796D-05 0.416046D-01 0.294373D-02
     33 0.000000D+00-0.215356D-02-0.474582D-05 0.622164D-01 0.249727D-02
     34 0.000000D+00 0.941929D-03 0.000000D+00-0.363254D-01-0.443459D-02
     35 0.000000D+00 0.000000D+00 0.000000D+00 0.000000D+00 0.000000D+00
     36 0.158083D-02 0.696863D+00 0.271288D-02 0.591216D-04 0.555500D-05
     37 0.121802D-04 0.271288D-02 0.696863D+00 0.000000D+00 0.000000D+00
     38 0.416046D-01 0.234598D-04 0.000000D+00 0.371987D-01 0.378385D-01
     39-0.622164D-01-0.340699D-04 0.000000D+00 0.000000D+00 0.000000D+00
     40 0.363254D-01 0.165156D-04 0.000000D+00 0.000000D+00-0.655057D-01
     41 0.000000D+00 0.000000D+00 0.000000D+00 0.000000D+00 0.000000D+00
     42 0.294373D-02 0.123828D-05 0.000000D+00 0.378385D-01 0.371987D-01
     43-0.249727D-02-0.126348D-05 0.000000D+00 0.000000D+00 0.000000D+00
     44 0.443459D-02 0.109956D-05 0.000000D+00 0.655057D-01 0.000000D+00
     45 0.000000D+00 0.000000D+00 0.000000D+00 0.000000D+00 0.000000D+00
     46 0.629799D-01 0.264286D-02 0.737242D-05 0.572646D-02 0.325723D-03
     47 0.578138D-02 0.737180D-05 0.000000D+00 0.631158D-01 0.538415D-02
     48 0.335680D-03 0.000000D+00 0.000000D+00 0.538425D-02 0.631157D-01
              16           17           18
      1 0.123825D-05 0.000000D+00 0.000000D+00
      2 0.126344D-05 0.000000D+00 0.000000D+00
      3 0.109953D-05 0.000000D+00 0.000000D+00
      4 0.000000D+00 0.000000D+00 0.000000D+00
      5 0.337007D-05 0.000000D+00 0.328784D-05
      6 0.262434D-05 0.000000D+00 0.474562D-05
      7 0.410815D-05 0.000000D+00 0.000000D+00
      8 0.000000D+00 0.000000D+00 0.000000D+00
      9 0.181336D-03 0.424951D-04 0.192201D-03
     10 0.113105D-03 0.608674D-04 0.328272D-03
     11 0.292061D-03 0.353578D-04-0.513733D-04
     12 0.000000D+00 0.000000D+00 0.000000D+00
     13 0.580142D-02 0.192197D-03 0.424969D-04
     14 0.576487D-02 0.328266D-03 0.608700D-04
     15 0.823119D-02 0.513724D-04-0.353594D-04
     16 0.000000D+00 0.000000D+00 0.000000D+00
     17 0.135721D-02 0.328797D-05 0.000000D+00
     18 0.215366D-02 0.474582D-05 0.000000D+00
     19 0.942002D-03 0.000000D+00 0.000000D+00
     20 0.000000D+00 0.000000D+00 0.000000D+00
     21 0.234602D-04 0.000000D+00 0.000000D+00
     22 0.340704D-04 0.000000D+00 0.000000D+00
     23 0.165160D-04 0.000000D+00 0.000000D+00
     24 0.000000D+00 0.000000D+00 0.000000D+00
     25 0.389056D-05 0.319395D-04 0.271283D-02
     26 0.000000D+00 0.000000D+00 0.000000D+00
     27 0.000000D+00 0.000000D+00 0.737197D-05
     28 0.445036D-04 0.203024D-03 0.620493D-02
     29 0.000000D+00 0.220377D-03 0.107215D-01
     30 0.738541D-04 0.273527D-03 0.788896D-03
     31 0.000000D+00 0.000000D+00 0.000000D+00
     32 0.798619D-01 0.620509D-02 0.203035D-03
     33-0.349865D-03 0.107218D-01 0.220387D-03
     34 0.138381D+00-0.788920D-03-0.273544D-03
     35 0.000000D+00 0.000000D+00 0.000000D+00
     36 0.264286D-02 0.737180D-05 0.000000D+00
     37 0.737242D-05 0.000000D+00 0.000000D+00
     38 0.613780D-02 0.800252D-01 0.572011D-02
     39-0.591130D-02 0.120544D+00 0.431261D-02
     40 0.883939D-02 0.685319D-01-0.892006D-02
     41 0.000000D+00 0.000000D+00 0.000000D+00
     42 0.195595D-03 0.571999D-02 0.800251D-01
     43-0.118065D-03 0.431259D-02 0.120544D+00
     44 0.316948D-03 0.891984D-02-0.685319D-01
     45 0.000000D+00 0.000000D+00 0.000000D+00
     46 0.696863D+00 0.271270D-02 0.319387D-04
     47 0.271270D-02 0.696863D+00 0.260097D-02
     48 0.319387D-04 0.260097D-02 0.696863D+00
 Simple Huckel Guess.
 Requested convergence on RMS density matrix=1.00D-08 within 128 cycles.
 Requested convergence on MAX density matrix=1.00D-06.
 Requested convergence on             energy=1.00D-06.
 No special actions if energy rises.
 Overlap will be assumed to be unity.
 SCF Done:  E(RHF) =  -61.6771676321     A.U. after   11 cycles
             Convg  =    0.1729D-08             -V/T =  0.8486
             S**2   =   0.0000
 Range of M.O.s used for correlation:     1    48
 NBasis=    48 NAE=    24 NBE=    24 NFC=     0 NFV=     0
 NROrb=     48 NOA=    24 NOB=    24 NVA=    24 NVB=    24
    12 initial guesses have been made.
 Convergence on wavefunction:    0.001000000000000
 Iteration     1 Dimension    12 NMult    12
 CISAX will form  12 AO SS matrices at one time.
 New state      1 was old state      2
 New state      2 was old state      1
 New state      3 was old state      7
 Iteration     2 Dimension    24 NMult    24
 No map to state      3
 Iteration     3 Dimension    27 NMult    27
 Iteration     4 Dimension    30 NMult    30
 Iteration     5 Dimension    33 NMult    33
 Iteration     6 Dimension    35 NMult    35
 ***********************************************************************
 Excited states from <AA,BB:AA,BB> singles matrix:
 ***********************************************************************
 
 Ground to excited state Transition electric dipole moments (Au):
       state          X           Y           Z          Osc.
         1        -0.1988      0.0000      0.0000      0.0038
         2        -0.0003     -1.1943      0.0000      0.1461
         3        -3.5757      0.0004      0.0000      1.6500
 Ground to excited state transition velocity dipole Moments (Au):
       state          X           Y           Z          Osc.
         1         0.0159      0.0000      0.0000      0.0012
         2         0.0000      0.0600      0.0000      0.0156
         3         0.3785      0.0000      0.0000      0.4935
 Ground to excited state transition magnetic dipole Moments (Au):
       state          X           Y           Z
         1         0.0000      0.0900      0.0000
         2        -0.3403      0.0001      0.0000
         3         0.0002      2.1459      0.0000
 <0|del|b> * <b|rxdel|0>  (Au), Rotatory Strengths (R) in
 cgs (10**-40 erg-esu-cm/Gauss)
       state          X           Y           Z     R(velocity)
         1         0.0000      0.0000      0.0000      0.0000
         2         0.0000      0.0000      0.0000      0.0000
         3         0.0001     -0.0001      0.0000      0.0000
 <0|r|b> * <b|rxdel|0>  (Au), Rotatory Strengths (R) in
 cgs (10**-40 erg-esu-cm/Gauss)
       state          X           Y           Z     R(length)
         1         0.0000      0.0000      0.0000     -0.0013
         2         0.0001     -0.0001      0.0000     -0.0046
         3        -0.0006      0.0008      0.0000     -0.0443
  <0|del|b> * <b|r|0>  (Au)
       state          X           Y           Z       Osc.(frdel)
         1        -0.0032      0.0000      0.0000      0.0021
         2         0.0000     -0.0717      0.0000      0.0478
         3        -1.3535      0.0000      0.0000      0.9023
 Ground to excited state transition densities written to RWF  633

 Excitation energies and oscillator strengths:
 
 Excited state symmetry could not be determined.
 Excited State   1:   Singlet-?Sym    3.9313 eV  315.37 nm  f=0.0038
      23 -> 25        -0.46114
      24 -> 26         0.52389
 This state for optimization and/or second-order correction.
 Copying the excited state density for this state as the 1-particle RhoCI density.
 
 Excited state symmetry could not be determined.
 Excited State   2:   Singlet-?Sym    4.1818 eV  296.48 nm  f=0.1461
      23 -> 26         0.24907
      24 -> 25         0.65116
 
 Excited state symmetry could not be determined.
 Excited State   3:   Singlet-?Sym    5.2674 eV  235.38 nm  f=1.6500
      23 -> 25         0.52107
      24 -> 26         0.45360

 **********************************************************************

            Population analysis using the SCF density.

 **********************************************************************

 Alpha  occ. eigenvalues --   -1.66140  -1.50042  -1.29850  -1.19551  -1.14289
 Alpha  occ. eigenvalues --   -0.98535  -0.96969  -0.95523  -0.81721  -0.73948
 Alpha  occ. eigenvalues --   -0.71311  -0.61675  -0.61332  -0.55358  -0.54976
 Alpha  occ. eigenvalues --   -0.53552  -0.53257  -0.49088  -0.43923  -0.43906
 Alpha  occ. eigenvalues --   -0.43442  -0.37560  -0.31971  -0.29315
 Alpha virt. eigenvalues --   -0.00582   0.01594   0.05174   0.08287   0.09487
 Alpha virt. eigenvalues --    0.12396   0.12510   0.12918   0.13830   0.15208
 Alpha virt. eigenvalues --    0.19920   0.20062   0.20199   0.22748   0.25758
 Alpha virt. eigenvalues --    0.31139   0.31649   0.33826   0.37068   0.37681
 Alpha virt. eigenvalues --    0.43039   0.44351   0.47605   0.49506
          Condensed to atoms (all electrons):
              1          2          3          4          5          6
     1  C    4.034714   0.000000   0.000000   0.000000   0.000000   0.000000
     2  C    0.000000   4.037395   0.000000   0.000000   0.000000   0.000000
     3  C    0.000000   0.000000   3.985236   0.000000   0.000000   0.000000
     4  C    0.000000   0.000000   0.000000   3.985236   0.000000   0.000000
     5  C    0.000000   0.000000   0.000000   0.000000   4.037392   0.000000
     6  C    0.000000   0.000000   0.000000   0.000000   0.000000   4.034719
     7  H    0.000000   0.000000   0.000000   0.000000   0.000000   0.000000
     8  H    0.000000   0.000000   0.000000   0.000000   0.000000   0.000000
     9  H    0.000000   0.000000   0.000000   0.000000   0.000000   0.000000
    10  C    0.000000   0.000000   0.000000   0.000000   0.000000   0.000000
    11  C    0.000000   0.000000   0.000000   0.000000   0.000000   0.000000
    12  H    0.000000   0.000000   0.000000   0.000000   0.000000   0.000000
    13  H    0.000000   0.000000   0.000000   0.000000   0.000000   0.000000
    14  C    0.000000   0.000000   0.000000   0.000000   0.000000   0.000000
    15  C    0.000000   0.000000   0.000000   0.000000   0.000000   0.000000
    16  H    0.000000   0.000000   0.000000   0.000000   0.000000   0.000000
    17  H    0.000000   0.000000   0.000000   0.000000   0.000000   0.000000
    18  H    0.000000   0.000000   0.000000   0.000000   0.000000   0.000000
              7          8          9         10         11         12
     1  C    0.000000   0.000000   0.000000   0.000000   0.000000   0.000000
     2  C    0.000000   0.000000   0.000000   0.000000   0.000000   0.000000
     3  C    0.000000   0.000000   0.000000   0.000000   0.000000   0.000000
     4  C    0.000000   0.000000   0.000000   0.000000   0.000000   0.000000
     5  C    0.000000   0.000000   0.000000   0.000000   0.000000   0.000000
     6  C    0.000000   0.000000   0.000000   0.000000   0.000000   0.000000
     7  H    0.967927   0.000000   0.000000   0.000000   0.000000   0.000000
     8  H    0.000000   0.967345   0.000000   0.000000   0.000000   0.000000
     9  H    0.000000   0.000000   0.967928   0.000000   0.000000   0.000000
    10  C    0.000000   0.000000   0.000000   4.037393   0.000000   0.000000
    11  C    0.000000   0.000000   0.000000   0.000000   4.037393   0.000000
    12  H    0.000000   0.000000   0.000000   0.000000   0.000000   0.967930
    13  H    0.000000   0.000000   0.000000   0.000000   0.000000   0.000000
    14  C    0.000000   0.000000   0.000000   0.000000   0.000000   0.000000
    15  C    0.000000   0.000000   0.000000   0.000000   0.000000   0.000000
    16  H    0.000000   0.000000   0.000000   0.000000   0.000000   0.000000
    17  H    0.000000   0.000000   0.000000   0.000000   0.000000   0.000000
    18  H    0.000000   0.000000   0.000000   0.000000   0.000000   0.000000
             13         14         15         16         17         18
     1  C    0.000000   0.000000   0.000000   0.000000   0.000000   0.000000
     2  C    0.000000   0.000000   0.000000   0.000000   0.000000   0.000000
     3  C    0.000000   0.000000   0.000000   0.000000   0.000000   0.000000
     4  C    0.000000   0.000000   0.000000   0.000000   0.000000   0.000000
     5  C    0.000000   0.000000   0.000000   0.000000   0.000000   0.000000
     6  C    0.000000   0.000000   0.000000   0.000000   0.000000   0.000000
     7  H    0.000000   0.000000   0.000000   0.000000   0.000000   0.000000
     8  H    0.000000   0.000000   0.000000   0.000000   0.000000   0.000000
     9  H    0.000000   0.000000   0.000000   0.000000   0.000000   0.000000
    10  C    0.000000   0.000000   0.000000   0.000000   0.000000   0.000000
    11  C    0.000000   0.000000   0.000000   0.000000   0.000000   0.000000
    12  H    0.000000   0.000000   0.000000   0.000000   0.000000   0.000000
    13  H    0.967342   0.000000   0.000000   0.000000   0.000000   0.000000
    14  C    0.000000   4.034714   0.000000   0.000000   0.000000   0.000000
    15  C    0.000000   0.000000   4.034717   0.000000   0.000000   0.000000
    16  H    0.000000   0.000000   0.000000   0.967928   0.000000   0.000000
    17  H    0.000000   0.000000   0.000000   0.000000   0.967345   0.000000
    18  H    0.000000   0.000000   0.000000   0.000000   0.000000   0.967346
 Mulliken atomic charges:
              1
     1  C   -0.034714
     2  C   -0.037395
     3  C    0.014764
     4  C    0.014764
     5  C   -0.037392
     6  C   -0.034719
     7  H    0.032073
     8  H    0.032655
     9  H    0.032072
    10  C   -0.037393
    11  C   -0.037393
    12  H    0.032070
    13  H    0.032658
    14  C   -0.034714
    15  C   -0.034717
    16  H    0.032072
    17  H    0.032655
    18  H    0.032654
 Sum of Mulliken charges=   0.00000
 Atomic charges with hydrogens summed into heavy atoms:
              1
     1  C   -0.002060
     2  C   -0.005322
     3  C    0.014764
     4  C    0.014764
     5  C   -0.005322
     6  C   -0.002061
     7  H    0.000000
     8  H    0.000000
     9  H    0.000000
    10  C   -0.005320
    11  C   -0.005321
    12  H    0.000000
    13  H    0.000000
    14  C   -0.002059
    15  C   -0.002063
    16  H    0.000000
    17  H    0.000000
    18  H    0.000000
 Sum of Mulliken charges=   0.00000
 Electronic spatial extent (au):  <R**2>=  4182.1119
 Charge=   -30.7141 electrons
 Dipole moment (field-independent basis, Debye):
    X=     0.0004    Y=     0.0002    Z=  -442.5787  Tot=   442.5787
 Quadrupole moment (field-independent basis, Debye-Ang):
   XX=  -620.0348   YY=  -323.0758   ZZ= -1425.3861
   XY=    -0.0008   XZ=     0.0013   YZ=     0.0005
 Traceless Quadrupole moment (field-independent basis, Debye-Ang):
   XX=   169.4641   YY=   466.4231   ZZ=  -635.8872
   XY=    -0.0008   XZ=     0.0013   YZ=     0.0005
 Octapole moment (field-independent basis, Debye-Ang**2):
  XXX=     0.0047  YYY=     0.0014  ZZZ= -4862.0590  XYY=     0.0001
  XXY=    -0.0002  XXZ= -1860.1043  XZZ=     0.0041  YZZ=     0.0016
  YYZ=  -969.2273  XYZ=    -0.0025
 Hexadecapole moment (field-independent basis, Debye-Ang**3):
 XXXX= -5458.6289 YYYY= -1585.3043 ZZZZ=-17311.6271 XXXY=    -0.0085
 XXXZ=     0.0141 YYYX=    -0.0045 YYYZ=     0.0041 ZZZX=     0.0129
 ZZZY=     0.0052 XXYY= -1115.5108 XXZZ= -5943.2464 YYZZ= -3077.1138
 XXYZ=    -0.0007 YYXZ=     0.0003 ZZXY=    -0.0082
 N-N= 1.602046288053D+02 E-N= 0.000000000000D+00  KE=-4.074188980920D+02

 Test job not archived.
 1\1\GINC-RHUBARB\SP\RZINDO\STO-3G\C10H8\JK905\10-Oct-2007\0\\# ZINDO P
 UNCH=MO IOP(3/33=1) NOSYMM\\04/10/07: Geometry from napthalene_b3lyp_o
 f.log and reorientated to put long axi geometric centre on 3\\0,1\C,0,
 -2.4336,-0.70848,3.\C,0,-1.24478,-1.40258,3.\C,0,-0.0000018091,-0.7168
 92,3.\C,0,0.0000023856,0.716891,3.\C,0,-1.24476,1.40257,3.\C,0,-2.4336
 ,0.708481,3.\H,0,1.24204,-2.49027,3.\H,0,-3.37834,-1.24559,3.\H,0,-1.2
 4204,-2.49028,3.\C,0,1.24476,-1.40258,3.\C,0,1.24478,1.40258,3.\H,0,-1
 .24204,2.49027,3.\H,0,-3.37833,1.24559,3.\C,0,2.4336,0.708481,3.\C,0,2
 .43359,-0.70848,3.\H,0,1.24203,2.49028,3.\H,0,3.37835,1.24559,3.\H,0,3
 .37834,-1.24559,3.\\Version=x86_64-Linux-G03RevB.05\HF=-61.6771676\RMS
 D=1.729e-09\PG=CS [SG(C10H8)]\\@


 THERE ONCE WAS A GIRL NAMED IRENE,
 WHO LIVED ON DISTILLED KEROSENE,
      BUT SHE STARTED ABSORBIN'
      A NEW HYDROCARBON,
 AND SINCE THEN HAS NEVER BENZENE.
 Job cpu time:  0 days  0 hours  0 minutes  1.6 seconds.
 File lengths (MBytes):  RWF=     17 Int=      0 D2E=      0 Chk=     10 Scr=      1
 Normal termination of Gaussian 03 at Wed Oct 10 10:14:34 2007.
