 Entering Gaussian System, Link 0=g03
 Input=3_pair.com
 Output=3_pair.log
 Initial command:
 /usr/local/g03/l1.exe /export/home/joe2/code/svnJ/J_from_g03/examples/naphthalene_zindo/Gau-12513.inp -scrdir=/export/home/joe2/code/svnJ/J_from_g03/examples/naphthalene_zindo/
 Entering Link 1 = /usr/local/g03/l1.exe PID=     12514.
  
 Copyright (c) 1988,1990,1992,1993,1995,1998,2003, Gaussian, Inc.
                  All Rights Reserved.
  
 This is the Gaussian(R) 03 program.  It is based on the
 the Gaussian(R) 98 system (copyright 1998, Gaussian, Inc.),
 the Gaussian(R) 94 system (copyright 1995, Gaussian, Inc.),
 the Gaussian 92(TM) system (copyright 1992, Gaussian, Inc.),
 the Gaussian 90(TM) system (copyright 1990, Gaussian, Inc.),
 the Gaussian 88(TM) system (copyright 1988, Gaussian, Inc.),
 the Gaussian 86(TM) system (copyright 1986, Carnegie Mellon
 University), and the Gaussian 82(TM) system (copyright 1983,
 Carnegie Mellon University). Gaussian is a federally registered
 trademark of Gaussian, Inc.
  
 This software contains proprietary and confidential information,
 including trade secrets, belonging to Gaussian, Inc.
  
 This software is provided under written license and may be
 used, copied, transmitted, or stored only in accord with that
 written license.
  
 The following legend is applicable only to US Government
 contracts under DFARS:
  
                    RESTRICTED RIGHTS LEGEND
  
 Use, duplication or disclosure by the US Government is subject
 to restrictions as set forth in subparagraph (c)(1)(ii) of the
 Rights in Technical Data and Computer Software clause at DFARS
 252.227-7013.
  
 Gaussian, Inc.
 Carnegie Office Park, Building 6, Pittsburgh, PA 15106 USA
  
 The following legend is applicable only to US Government
 contracts under FAR:
  
                    RESTRICTED RIGHTS LEGEND
  
 Use, reproduction and disclosure by the US Government is subject
 to restrictions as set forth in subparagraph (c) of the
 Commercial Computer Software - Restricted Rights clause at FAR
 52.227-19.
  
 Gaussian, Inc.
 Carnegie Office Park, Building 6, Pittsburgh, PA 15106 USA
  
  
 ---------------------------------------------------------------
 Warning -- This program may not be used in any manner that
 competes with the business of Gaussian, Inc. or will provide
 assistance to any competitor of Gaussian, Inc.  The licensee
 of this program is prohibited from giving any competitor of
 Gaussian, Inc. access to this program.  By using this program,
 the user acknowledges that Gaussian, Inc. is engaged in the
 business of creating and licensing software in the field of
 computational chemistry and represents and warrants to the
 licensee that it is not a competitor of Gaussian, Inc. and that
 it will not use this program in any manner prohibited above.
 ---------------------------------------------------------------
  

 Cite this work as:
 Gaussian 03, Revision B.05,
 M. J. Frisch, G. W. Trucks, H. B. Schlegel, G. E. Scuseria, 
 M. A. Robb, J. R. Cheeseman, J. A. Montgomery, Jr., T. Vreven, 
 K. N. Kudin, J. C. Burant, J. M. Millam, S. S. Iyengar, J. Tomasi, 
 V. Barone, B. Mennucci, M. Cossi, G. Scalmani, N. Rega, 
 G. A. Petersson, H. Nakatsuji, M. Hada, M. Ehara, K. Toyota, 
 R. Fukuda, J. Hasegawa, M. Ishida, T. Nakajima, Y. Honda, O. Kitao, 
 H. Nakai, M. Klene, X. Li, J. E. Knox, H. P. Hratchian, J. B. Cross, 
 C. Adamo, J. Jaramillo, R. Gomperts, R. E. Stratmann, O. Yazyev, 
 A. J. Austin, R. Cammi, C. Pomelli, J. W. Ochterski, P. Y. Ayala, 
 K. Morokuma, G. A. Voth, P. Salvador, J. J. Dannenberg, 
 V. G. Zakrzewski, S. Dapprich, A. D. Daniels, M. C. Strain, 
 O. Farkas, D. K. Malick, A. D. Rabuck, K. Raghavachari, 
 J. B. Foresman, J. V. Ortiz, Q. Cui, A. G. Baboul, S. Clifford, 
 J. Cioslowski, B. B. Stefanov, G. Liu, A. Liashenko, P. Piskorz, 
 I. Komaromi, R. L. Martin, D. J. Fox, T. Keith, M. A. Al-Laham, 
 C. Y. Peng, A. Nanayakkara, M. Challacombe, P. M. W. Gill, 
 B. Johnson, W. Chen, M. W. Wong, C. Gonzalez, and J. A. Pople, 
 Gaussian, Inc., Pittsburgh PA, 2003.
 
 *************************************************
 Gaussian 03:  x86_64-Linux-G03RevB.05  8-Nov-2003
                    10-Oct-2007 
 *************************************************
 -----------------------------------
 # zindo punch=mo iop(3/33=1) nosymm
 -----------------------------------
 1/30=1,38=1/1;
 2/15=1,17=6,18=5,40=1/2;
 3/5=2,12=3,16=1,25=1,33=1,41=400000/1,2,8,3;
 4/5=3,11=1,35=1/1;
 5/5=2,35=1,38=5/2;
 8/6=1/1;
 9/42=1,49=10/14;
 6/7=2,8=2,9=2,10=2/1;
 99/5=1,9=1,10=32/99;
 ----------------------------------------------------------------------
 04/10/07: Geometry from napthalene_b3lyp_of.log and reorientated to pu
 t long axi geometric centre on origin.
 ----------------------------------------------------------------------
 Symbolic Z-matrix:
 Charge =  0 Multiplicity = 1
 C                    -2.4336   -0.70848   0. 
 C                    -1.24478  -1.40258   0. 
 C                    0.        -0.71689   0. 
 C                     0.        0.71689   0. 
 C                    -1.24476   1.40257   0. 
 C                    -2.4336    0.70848   0. 
 H                     1.24204  -2.49027   0. 
 H                    -3.37834  -1.24559   0. 
 H                    -1.24204  -2.49028   0. 
 C                     1.24476  -1.40258   0. 
 C                     1.24478   1.40258   0. 
 H                    -1.24204   2.49027   0. 
 H                    -3.37833   1.24559   0. 
 C                     2.4336    0.70848   0. 
 C                     2.43359  -0.70848   0. 
 H                     1.24203   2.49028   0. 
 H                     3.37835   1.24559   0. 
 H                     3.37834  -1.24559   0. 
 C                    -2.4336   -0.70848   3. 
 C                    -1.24478  -1.40258   3. 
 C                    0.        -0.71689   3. 
 C                     0.        0.71689   3. 
 C                    -1.24476   1.40257   3. 
 C                    -2.4336    0.70848   3. 
 H                     1.24204  -2.49027   3. 
 H                    -3.37834  -1.24559   3. 
 H                    -1.24204  -2.49028   3. 
 C                     1.24476  -1.40258   3. 
 C                     1.24478   1.40258   3. 
 H                    -1.24204   2.49027   3. 
 H                    -3.37833   1.24559   3. 
 C                     2.4336    0.70848   3. 
 C                     2.43359  -0.70848   3. 
 H                     1.24203   2.49028   3. 
 H                     3.37835   1.24559   3. 
 H                     3.37834  -1.24559   3. 
 
                          Input orientation:                          
 ---------------------------------------------------------------------
 Center     Atomic     Atomic              Coordinates (Angstroms)
 Number     Number      Type              X           Y           Z
 ---------------------------------------------------------------------
    1          6             0       -2.433600   -0.708480    0.000000
    2          6             0       -1.244780   -1.402580    0.000000
    3          6             0       -0.000002   -0.716892    0.000000
    4          6             0        0.000002    0.716891    0.000000
    5          6             0       -1.244760    1.402570    0.000000
    6          6             0       -2.433600    0.708481    0.000000
    7          1             0        1.242040   -2.490270    0.000000
    8          1             0       -3.378340   -1.245590    0.000000
    9          1             0       -1.242040   -2.490280    0.000000
   10          6             0        1.244760   -1.402580    0.000000
   11          6             0        1.244780    1.402580    0.000000
   12          1             0       -1.242040    2.490270    0.000000
   13          1             0       -3.378330    1.245590    0.000000
   14          6             0        2.433600    0.708481    0.000000
   15          6             0        2.433590   -0.708480    0.000000
   16          1             0        1.242030    2.490280    0.000000
   17          1             0        3.378350    1.245590    0.000000
   18          1             0        3.378340   -1.245590    0.000000
   19          6             0       -2.433600   -0.708480    3.000000
   20          6             0       -1.244780   -1.402580    3.000000
   21          6             0       -0.000002   -0.716892    3.000000
   22          6             0        0.000002    0.716891    3.000000
   23          6             0       -1.244760    1.402570    3.000000
   24          6             0       -2.433600    0.708481    3.000000
   25          1             0        1.242040   -2.490270    3.000000
   26          1             0       -3.378340   -1.245590    3.000000
   27          1             0       -1.242040   -2.490280    3.000000
   28          6             0        1.244760   -1.402580    3.000000
   29          6             0        1.244780    1.402580    3.000000
   30          1             0       -1.242040    2.490270    3.000000
   31          1             0       -3.378330    1.245590    3.000000
   32          6             0        2.433600    0.708481    3.000000
   33          6             0        2.433590   -0.708480    3.000000
   34          1             0        1.242030    2.490280    3.000000
   35          1             0        3.378350    1.245590    3.000000
   36          1             0        3.378340   -1.245590    3.000000
 ---------------------------------------------------------------------
                    Distance matrix (angstroms):
                    1          2          3          4          5
     1  C    0.000000
     2  C    1.376615   0.000000
     3  C    2.433613   1.421141   0.000000
     4  C    2.820302   2.457975   1.433783   0.000000
     5  C    2.422782   2.805150   2.457955   1.421122   0.000000
     6  C    1.416961   2.422782   2.820299   2.433617   1.376626
     7  H    4.084741   2.714285   2.165072   3.439264   4.619348
     8  H    1.086748   2.139328   3.419458   3.906985   3.400723
     9  H    2.143508   1.087703   2.165078   3.439275   3.892851
    10  C    3.743275   2.489540   1.421126   2.457962   3.750543
    11  C    4.241115   3.750578   2.457975   1.421141   2.489540
    12  H    3.413476   3.892851   3.439265   2.165073   1.087703
    13  H    2.170462   3.400712   3.906973   3.419452   2.139337
    14  C    5.069262   4.241115   2.820302   2.433612   3.743273
    15  C    4.867190   3.743285   2.433606   2.820289   4.241084
    16  H    4.872609   4.619370   3.439272   2.165073   2.714266
    17  H    6.131652   5.327864   3.906993   3.419467   4.625774
    18  H    5.836706   4.625785   3.419461   3.906981   5.327833
    19  C    3.000000   3.300768   3.862961   4.117536   3.856147
    20  C    3.300768   3.000000   3.319584   3.878355   4.107173
    21  C    3.862961   3.319584   3.000000   3.325016   3.878343
    22  C    4.117536   3.878355   3.325016   3.000000   3.319577
    23  C    3.856147   4.107173   3.878343   3.319577   3.000000
    24  C    3.317797   3.856147   4.117534   3.862964   3.300773
    25  H    5.068047   4.045657   3.699667   4.563829   5.508028
    26  H    3.190771   3.684661   4.548922   4.925904   4.534856
    27  H    3.687089   3.191097   3.699671   4.563838   4.914701
    28  C    4.797094   3.898437   3.319578   3.878347   4.802768
    29  C    5.194907   4.802794   3.878356   3.319584   3.898437
    30  H    4.544427   4.914701   4.563830   3.699668   3.191097
    31  H    3.702824   4.534847   4.925895   4.548918   3.684666
    32  C    5.890451   5.194907   4.117536   3.862961   4.797092
    33  C    5.717477   4.797101   3.862957   4.117527   5.194881
    34  H    5.722091   5.508047   4.563836   3.699668   4.045644
    35  H    6.826211   6.114420   4.925911   4.548929   5.513419
    36  H    6.562555   5.513428   4.548925   4.925901   6.114393
                    6          7          8          9         10
     6  C    0.000000
     7  H    4.872611   0.000000
     8  H    2.170467   4.785096   0.000000
     9  H    3.413486   2.484080   2.472454   0.000000
    10  C    4.241098   1.087693   4.625765   2.714271   0.000000
    11  C    3.743294   3.892851   5.327855   4.619376   2.805160
    12  H    2.143499   5.565648   4.303537   4.980550   4.619357
    13  H    1.086739   5.941756   2.491180   4.303540   5.327829
    14  C    4.867200   3.413477   6.131643   4.872618   2.422792
    15  C    5.069252   2.143494   5.836696   4.084736   1.376623
    16  H    4.084735   4.980550   5.941763   5.565661   3.892861
    17  H    5.836716   4.303542   7.201308   5.941778   3.400737
    18  H    6.131643   2.472449   6.756680   4.785098   2.139348
    19  C    3.317797   5.068047   3.190771   3.687089   4.797094
    20  C    3.856147   4.045657   3.684661   3.191097   3.898437
    21  C    4.117534   3.699667   4.548922   3.699671   3.319578
    22  C    3.862964   4.563829   4.925904   4.563838   3.878347
    23  C    3.300773   5.508028   4.534856   4.914701   4.802768
    24  C    3.000000   5.722092   3.702827   4.544435   5.194893
    25  H    5.722092   3.000000   5.647755   3.894952   3.191093
    26  H    3.702827   5.647755   3.000000   3.887548   5.513411
    27  H    4.544435   3.894952   3.887548   3.000000   4.045648
    28  C    5.194893   3.191093   5.513411   4.045648   3.000000
    29  C    4.797109   4.914701   6.114413   5.508052   4.107179
    30  H    3.687084   6.322692   5.245992   5.814282   5.508036
    31  H    3.190768   6.656160   3.899484   5.245995   6.114390
    32  C    5.717485   4.544428   6.826202   5.722098   3.856153
    33  C    5.890443   3.687081   6.562547   5.068044   3.300771
    34  H    5.068043   5.814282   6.656166   6.322704   4.914709
    35  H    6.562564   5.245996   7.801207   6.656180   4.534866
    36  H    6.826202   3.887545   7.392748   5.647757   3.684672
                   11         12         13         14         15
    11  C    0.000000
    12  H    2.714285   0.000000
    13  H    4.625775   2.472441   0.000000
    14  C    1.376614   4.084740   5.836696   0.000000
    15  C    2.422776   4.872603   6.131623   1.416961   0.000000
    16  H    1.087703   2.484070   4.785079   2.143513   3.413485
    17  H    2.139338   4.785105   6.756680   1.086756   2.170475
    18  H    3.400718   5.941764   7.201289   2.170467   1.086757
    19  C    5.194907   4.544427   3.702824   5.890451   5.717477
    20  C    4.802794   4.914701   4.534847   5.194907   4.797101
    21  C    3.878356   4.563830   4.925895   4.117536   3.862957
    22  C    3.319584   3.699668   4.548918   3.862961   4.117527
    23  C    3.898437   3.191097   3.684666   4.797092   5.194881
    24  C    4.797109   3.687084   3.190768   5.717485   5.890443
    25  H    4.914701   6.322692   6.656160   4.544428   3.687081
    26  H    6.114413   5.245992   3.899484   6.826202   6.562547
    27  H    5.508052   5.814282   5.245995   5.722098   5.068044
    28  C    4.107179   5.508036   6.114390   3.856153   3.300771
    29  C    3.000000   4.045657   5.513419   3.300768   3.856144
    30  H    4.045657   3.000000   3.887539   5.068047   5.722085
    31  H    5.513419   3.887539   3.000000   6.562546   6.826185
    32  C    3.300768   5.068047   6.562546   3.000000   3.317797
    33  C    3.856144   5.722085   6.826185   3.317797   3.000000
    34  H    3.191097   3.894946   5.647741   3.687092   4.544434
    35  H    3.684666   5.647763   7.392748   3.190774   3.702831
    36  H    4.534852   6.656167   7.801190   3.702827   3.190774
                   16         17         18         19         20
    16  H    0.000000
    17  H    2.472472   0.000000
    18  H    4.303550   2.491180   0.000000
    19  C    5.722091   6.826211   6.562555   0.000000
    20  C    5.508047   6.114420   5.513428   1.376615   0.000000
    21  C    4.563836   4.925911   4.548925   2.433613   1.421141
    22  C    3.699668   4.548929   4.925901   2.820302   2.457975
    23  C    4.045644   5.513419   6.114393   2.422782   2.805150
    24  C    5.068043   6.562564   6.826202   1.416961   2.422782
    25  H    5.814282   5.245996   3.887545   4.084741   2.714285
    26  H    6.656166   7.801207   7.392748   1.086748   2.139328
    27  H    6.322704   6.656180   5.647757   2.143508   1.087703
    28  C    4.914709   4.534866   3.684672   3.743275   2.489540
    29  C    3.191097   3.684666   4.534852   4.241115   3.750578
    30  H    3.894946   5.647763   6.656167   3.413476   3.892851
    31  H    5.647741   7.392748   7.801190   2.170462   3.400712
    32  C    3.687092   3.190774   3.702827   5.069262   4.241115
    33  C    4.544434   3.702831   3.190774   4.867190   3.743285
    34  H    3.000000   3.887559   5.246003   4.872609   4.619370
    35  H    3.887559   3.000000   3.899484   6.131652   5.327864
    36  H    5.246003   3.899484   3.000000   5.836706   4.625785
                   21         22         23         24         25
    21  C    0.000000
    22  C    1.433783   0.000000
    23  C    2.457955   1.421122   0.000000
    24  C    2.820299   2.433617   1.376626   0.000000
    25  H    2.165072   3.439264   4.619348   4.872611   0.000000
    26  H    3.419458   3.906985   3.400723   2.170467   4.785096
    27  H    2.165078   3.439275   3.892851   3.413486   2.484080
    28  C    1.421126   2.457962   3.750543   4.241098   1.087693
    29  C    2.457975   1.421141   2.489540   3.743294   3.892851
    30  H    3.439265   2.165073   1.087703   2.143499   5.565648
    31  H    3.906973   3.419452   2.139337   1.086739   5.941756
    32  C    2.820302   2.433612   3.743273   4.867200   3.413477
    33  C    2.433606   2.820289   4.241084   5.069252   2.143494
    34  H    3.439272   2.165073   2.714266   4.084735   4.980550
    35  H    3.906993   3.419467   4.625774   5.836716   4.303542
    36  H    3.419461   3.906981   5.327833   6.131643   2.472449
                   26         27         28         29         30
    26  H    0.000000
    27  H    2.472454   0.000000
    28  C    4.625765   2.714271   0.000000
    29  C    5.327855   4.619376   2.805160   0.000000
    30  H    4.303537   4.980550   4.619357   2.714285   0.000000
    31  H    2.491180   4.303540   5.327829   4.625775   2.472441
    32  C    6.131643   4.872618   2.422792   1.376614   4.084740
    33  C    5.836696   4.084736   1.376623   2.422776   4.872603
    34  H    5.941763   5.565661   3.892861   1.087703   2.484070
    35  H    7.201308   5.941778   3.400737   2.139338   4.785105
    36  H    6.756680   4.785098   2.139348   3.400718   5.941764
                   31         32         33         34         35
    31  H    0.000000
    32  C    5.836696   0.000000
    33  C    6.131623   1.416961   0.000000
    34  H    4.785079   2.143513   3.413485   0.000000
    35  H    6.756680   1.086756   2.170475   2.472472   0.000000
    36  H    7.201289   2.170467   1.086757   4.303550   2.491180
                   36
    36  H    0.000000
 Symmetry turned off by external request.
 Stoichiometry    C20H16
 Framework group  CS[X(C20H16)]
 Deg. of freedom    51
 Full point group                 CS      NOp   2
 Rotational constants (GHZ):      0.5612206      0.4410042      0.3614919
 Standard basis: VSTO-6G (5D, 7F)
                         Coordinates in L301:                         
 ---------------------------------------------------------------------
 Center     Atomic     Atomic              Coordinates (Angstroms)
 Number     Number      Type              X           Y           Z
 ---------------------------------------------------------------------
    1          6             0       -2.433600   -0.708480    0.000000
    2          6             0       -1.244780   -1.402580    0.000000
    3          6             0       -0.000002   -0.716892    0.000000
    4          6             0        0.000002    0.716891    0.000000
    5          6             0       -1.244760    1.402570    0.000000
    6          6             0       -2.433600    0.708481    0.000000
    7          1             0        1.242040   -2.490270    0.000000
    8          1             0       -3.378340   -1.245590    0.000000
    9          1             0       -1.242040   -2.490280    0.000000
   10          6             0        1.244760   -1.402580    0.000000
   11          6             0        1.244780    1.402580    0.000000
   12          1             0       -1.242040    2.490270    0.000000
   13          1             0       -3.378330    1.245590    0.000000
   14          6             0        2.433600    0.708481    0.000000
   15          6             0        2.433590   -0.708480    0.000000
   16          1             0        1.242030    2.490280    0.000000
   17          1             0        3.378350    1.245590    0.000000
   18          1             0        3.378340   -1.245590    0.000000
   19          6             0       -2.433600   -0.708480    3.000000
   20          6             0       -1.244780   -1.402580    3.000000
   21          6             0       -0.000002   -0.716892    3.000000
   22          6             0        0.000002    0.716891    3.000000
   23          6             0       -1.244760    1.402570    3.000000
   24          6             0       -2.433600    0.708481    3.000000
   25          1             0        1.242040   -2.490270    3.000000
   26          1             0       -3.378340   -1.245590    3.000000
   27          1             0       -1.242040   -2.490280    3.000000
   28          6             0        1.244760   -1.402580    3.000000
   29          6             0        1.244780    1.402580    3.000000
   30          1             0       -1.242040    2.490270    3.000000
   31          1             0       -3.378330    1.245590    3.000000
   32          6             0        2.433600    0.708481    3.000000
   33          6             0        2.433590   -0.708480    3.000000
   34          1             0        1.242030    2.490280    3.000000
   35          1             0        3.378350    1.245590    3.000000
   36          1             0        3.378340   -1.245590    3.000000
 ---------------------------------------------------------------------
 LdAtmC:  AtmChg=     4.000000     4.000000     4.000000     4.000000     4.000000
 LdAtmC:  AtmChg=     4.000000     1.000000     1.000000     1.000000     4.000000
 LdAtmC:  AtmChg=     4.000000     1.000000     1.000000     4.000000     4.000000
 LdAtmC:  AtmChg=     1.000000     1.000000     1.000000     4.000000     4.000000
 LdAtmC:  AtmChg=     4.000000     4.000000     4.000000     4.000000     1.000000
 LdAtmC:  AtmChg=     1.000000     1.000000     4.000000     4.000000     1.000000
 LdAtmC:  AtmChg=     1.000000     4.000000     4.000000     1.000000     1.000000
 LdAtmC:  AtmChg=     1.000000
 AtZEff=  -3.9000000  -3.9000000  -3.9000000  -3.9000000  -3.9000000  -3.9000000  -1.0000000  -1.0000000  -1.0000000  -3.9000000
 AtZEff=  -3.9000000  -1.0000000  -1.0000000  -3.9000000  -3.9000000  -1.0000000  -1.0000000  -1.0000000  -3.9000000  -3.9000000
 AtZEff=  -3.9000000  -3.9000000  -3.9000000  -3.9000000  -1.0000000  -1.0000000  -1.0000000  -3.9000000  -3.9000000  -1.0000000
 AtZEff=  -1.0000000  -3.9000000  -3.9000000  -1.0000000  -1.0000000  -1.0000000
 Integral buffers will be    131072 words long.
 Regular integral format.
 Two-electron integral symmetry is turned off.
    96 basis functions,   576 primitive gaussians,    96 cartesian basis functions
    48 alpha electrons       48 beta electrons
       nuclear repulsion energy       749.3854506504 Hartrees.
 Do NDO integrals.
 NPDir=0 NMtPBC=     1 NCelOv=     1 NCel=       1 NClECP=     1 NCelD=      1
         NCelK=      1 NCelE2=     1 NClLst=     1 CellRange=     0.0.
 One-electron integrals computed using PRISM.
 Entering OneElI...
 Calculate overlap and kinetic energy integrals
    NBasis =  96  MinDer = 0  MaxDer = 0
 Requested accuracy = 0.1000D-12
 PrsmSu:  NPrtUS=   1 ThrOK=F
 PRISM was handed     5633902 working-precision words and  1596 shell-pairs
 *** Overlap *** 
                1             2             3             4             5
      1  0.100000D+01
      2  0.000000D+00  0.100000D+01
      3  0.000000D+00  0.000000D+00  0.100000D+01
      4  0.000000D+00  0.000000D+00  0.000000D+00  0.100000D+01
      5  0.418191D+00  0.363502D+00 -0.212233D+00  0.000000D+00  0.100000D+01
      6 -0.363502D+00 -0.180916D+00  0.253964D+00  0.000000D+00  0.000000D+00
      7  0.212233D+00  0.253964D+00  0.105782D+00  0.000000D+00  0.000000D+00
      8  0.000000D+00  0.000000D+00  0.000000D+00  0.254061D+00  0.000000D+00
      9  0.846391D-01  0.110523D+00 -0.382034D-03  0.000000D+00  0.396101D+00
     10 -0.110523D+00 -0.138570D+00  0.594126D-03  0.000000D+00 -0.355765D+00
     11  0.382034D-03  0.594126D-03  0.333092D-01  0.000000D+00 -0.195974D+00
     12  0.000000D+00  0.000000D+00  0.000000D+00  0.333113D-01  0.000000D+00
     13  0.416121D-01  0.490741D-01  0.287429D-01  0.000000D+00  0.810676D-01
     14 -0.490741D-01 -0.527411D-01 -0.393103D-01  0.000000D+00 -0.537875D-01
     15 -0.287429D-01 -0.393103D-01 -0.864900D-02  0.000000D+00 -0.915831D-01
     16  0.000000D+00  0.000000D+00  0.000000D+00  0.143752D-01  0.000000D+00
     17  0.862706D-01  0.551960D-01  0.980127D-01  0.000000D+00  0.428279D-01
     18 -0.551960D-01 -0.801020D-02 -0.747485D-01  0.000000D+00  0.000000D+00
     19 -0.980127D-01 -0.747485D-01 -0.986481D-01  0.000000D+00 -0.584429D-01
     20  0.000000D+00  0.000000D+00  0.000000D+00  0.340845D-01  0.000000D+00
     21  0.398147D+00  0.000000D+00  0.407575D+00  0.000000D+00  0.862707D-01
     22  0.000000D+00  0.237410D+00  0.000000D+00  0.000000D+00  0.551950D-01
     23 -0.407575D+00  0.000000D+00 -0.331866D+00  0.000000D+00 -0.980133D-01
     24  0.000000D+00  0.000000D+00  0.000000D+00  0.237410D+00  0.000000D+00
     25  0.333994D-02  0.419336D-02 -0.203276D-02  0.000000D+00  0.460693D-01
     26  0.520724D+00 -0.425568D+00 -0.241947D+00  0.000000D+00  0.122081D+00
     27  0.121262D+00  0.818767D-01 -0.122434D+00  0.000000D+00  0.520189D+00
     28  0.632579D-02  0.913905D-02 -0.172452D-02  0.000000D+00  0.766371D-01
     29 -0.913905D-02 -0.130801D-01  0.278265D-02  0.000000D+00 -0.100826D+00
     30  0.172452D-02  0.278265D-02  0.114141D-02  0.000000D+00  0.000000D+00
     31  0.000000D+00  0.000000D+00  0.000000D+00  0.166649D-02  0.000000D+00
     32  0.207463D-02  0.271691D-02  0.155926D-02  0.000000D+00  0.622624D-02
     33 -0.271691D-02 -0.344846D-02 -0.225274D-02  0.000000D+00 -0.607896D-02
     34 -0.155926D-02 -0.225274D-02 -0.816083D-03  0.000000D+00 -0.684958D-02
     35  0.000000D+00  0.000000D+00  0.000000D+00  0.476789D-03  0.000000D+00
     36  0.126733D-01  0.593732D-02  0.159388D-01  0.000000D+00  0.493725D-02
     37  0.116094D+00 -0.615787D-01  0.127369D+00  0.000000D+00  0.129872D-01
     38  0.279191D-03  0.415846D-03  0.121063D-03  0.000000D+00  0.207463D-02
     39 -0.415846D-03 -0.620709D-03 -0.195609D-03  0.000000D+00 -0.271691D-02
     40 -0.121063D-03 -0.195609D-03 -0.574568D-05  0.000000D+00 -0.155926D-02
     41  0.000000D+00  0.000000D+00  0.000000D+00  0.512010D-04  0.000000D+00
     42  0.463427D-03  0.715545D-03  0.000000D+00  0.000000D+00  0.632565D-02
     43 -0.715545D-03 -0.111338D-02  0.000000D+00  0.000000D+00 -0.913886D-02
     44  0.000000D+00  0.000000D+00  0.898024D-04  0.000000D+00 -0.172448D-02
     45  0.000000D+00  0.000000D+00  0.000000D+00  0.898024D-04  0.000000D+00
     46  0.615270D-03  0.675946D-03  0.588250D-03  0.000000D+00  0.107651D-02
     47  0.303512D-04  0.440305D-04  0.148037D-04  0.000000D+00  0.216579D-03
     48  0.635625D-04  0.960250D-04 -0.887414D-05  0.000000D+00  0.106156D-02
     49  0.294077D-01  0.000000D+00  0.000000D+00  0.408923D-01  0.160923D-01
     50  0.000000D+00  0.960264D-02  0.000000D+00  0.000000D+00  0.826460D-02
     51  0.000000D+00  0.000000D+00  0.960264D-02  0.000000D+00 -0.482534D-02
     52 -0.408923D-01  0.000000D+00  0.000000D+00 -0.557016D-01 -0.208558D-01
     53  0.160923D-01  0.826460D-02 -0.482534D-02  0.208558D-01  0.294077D-01
     54 -0.826460D-02 -0.606683D-05  0.280847D-02 -0.121386D-01  0.000000D+00
     55  0.482534D-02  0.280847D-02  0.316439D-02  0.708719D-02  0.000000D+00
     56 -0.208558D-01 -0.121386D-01  0.708719D-02 -0.258277D-01 -0.408923D-01
     57  0.486867D-02  0.454174D-02 -0.156990D-04  0.559880D-02  0.154831D-01
     58 -0.454174D-02 -0.347569D-02  0.163035D-04 -0.581437D-02 -0.829079D-02
     59  0.156990D-04  0.163035D-04  0.124087D-02  0.200980D-04 -0.456699D-02
     60 -0.559880D-02 -0.581437D-02  0.200980D-04 -0.592670D-02 -0.199814D-01
     61  0.275351D-02  0.244291D-02  0.143082D-02  0.301147D-02  0.470611D-02
     62 -0.244291D-02 -0.174324D-02 -0.140438D-02 -0.295581D-02 -0.223860D-02
     63 -0.143082D-02 -0.140438D-02 -0.168034D-03 -0.173123D-02 -0.381162D-02
     64 -0.301147D-02 -0.295581D-02 -0.173123D-02 -0.298923D-02 -0.539515D-02
     65  0.494231D-02  0.225534D-02  0.400486D-02  0.569128D-02  0.281912D-02
     66 -0.225534D-02  0.116105D-03 -0.203490D-02 -0.289178D-02  0.000000D+00
     67 -0.400486D-02 -0.203490D-02 -0.235136D-02 -0.513500D-02 -0.288876D-02
     68 -0.569128D-02 -0.289178D-02 -0.513500D-02 -0.603526D-02 -0.308942D-02
     69  0.155400D-01  0.000000D+00  0.947611D-02  0.200629D-01  0.494231D-02
     70  0.000000D+00  0.461642D-02  0.000000D+00  0.000000D+00  0.225530D-02
     71 -0.947611D-02  0.000000D+00 -0.192784D-02 -0.138555D-01 -0.400488D-02
     72 -0.200629D-01  0.000000D+00 -0.138555D-01 -0.247186D-01 -0.569128D-02
     73  0.395406D-03  0.421675D-03 -0.204409D-03  0.344164D-03  0.361903D-02
     74  0.193286D-01 -0.757872D-02 -0.430871D-02  0.240661D-01  0.747843D-02
     75  0.744268D-02  0.328006D-02 -0.490484D-02  0.825823D-02  0.193168D-01
     76  0.551053D-03  0.651175D-03 -0.122875D-03  0.531086D-03  0.450174D-02
     77 -0.651175D-03 -0.730308D-03  0.158346D-03 -0.684394D-03 -0.426553D-02
     78  0.122875D-03  0.158346D-03  0.789620D-04  0.129144D-03  0.000000D+00
     79 -0.531086D-03 -0.684394D-03  0.129144D-03 -0.449337D-03 -0.514014D-02
     80  0.202595D-03  0.223064D-03  0.128019D-03  0.181926D-03  0.543374D-03
     81 -0.223064D-03 -0.229891D-03 -0.152541D-03 -0.216774D-03 -0.434135D-03
     82 -0.128019D-03 -0.152541D-03 -0.516436D-04 -0.124409D-03 -0.489170D-03
     83 -0.181926D-03 -0.216774D-03 -0.124409D-03 -0.140895D-03 -0.523147D-03
     84  0.126666D-02  0.475442D-03  0.127633D-02  0.119702D-02  0.559814D-03
     85  0.721496D-02 -0.251261D-02  0.519705D-02  0.797881D-02  0.129315D-02
     86  0.318027D-04  0.411041D-04  0.119664D-04  0.253354D-04  0.202595D-03
     87 -0.411041D-04 -0.521223D-04 -0.165284D-04 -0.349941D-04 -0.223064D-03
     88 -0.119664D-04 -0.165284D-04  0.000000D+00 -0.101876D-04 -0.128019D-03
     89 -0.253354D-04 -0.349941D-04 -0.101876D-04 -0.169171D-04 -0.181926D-03
     90  0.510112D-04  0.678977D-04  0.000000D+00  0.418502D-04  0.551042D-03
     91 -0.678977D-04 -0.890451D-04  0.000000D+00 -0.597114D-04 -0.651163D-03
     92  0.000000D+00  0.000000D+00  0.783043D-05  0.000000D+00 -0.122873D-03
     93 -0.418502D-04 -0.597114D-04  0.000000D+00 -0.289740D-04 -0.531075D-03
     94  0.842340D-04  0.817691D-04  0.711605D-04  0.667389D-04  0.141312D-03
     95  0.489155D-05  0.645190D-05  0.216923D-05  0.333033D-05  0.317090D-04
     96  0.992102D-05  0.135692D-04 -0.125400D-05  0.700414D-05  0.139505D-03
                6             7             8             9            10
      6  0.100000D+01
      7  0.000000D+00  0.100000D+01
      8  0.000000D+00  0.000000D+00  0.100000D+01
      9  0.355765D+00  0.195974D+00  0.000000D+00  0.100000D+01
     10 -0.199856D+00 -0.239946D+00  0.000000D+00  0.000000D+00  0.100000D+01
     11 -0.239946D+00  0.103561D+00  0.000000D+00  0.000000D+00  0.000000D+00
     12  0.000000D+00  0.000000D+00  0.235736D+00  0.000000D+00  0.000000D+00
     13  0.537875D-01  0.915831D-01  0.000000D+00  0.389948D+00  0.117580D-05
     14 -0.107884D-01 -0.722277D-01  0.000000D+00 -0.117580D-05  0.230728D+00
     15 -0.722277D-01 -0.913494D-01  0.000000D+00 -0.401898D+00 -0.164752D-05
     16  0.000000D+00  0.000000D+00  0.316316D-01  0.000000D+00  0.000000D+00
     17  0.000000D+00  0.584429D-01  0.000000D+00  0.810704D-01 -0.537887D-01
     18  0.148673D-01  0.000000D+00  0.000000D+00  0.537887D-01 -0.107874D-01
     19  0.000000D+00 -0.777017D-01  0.000000D+00 -0.915865D-01  0.722294D-01
     20  0.000000D+00  0.000000D+00  0.148673D-01  0.000000D+00  0.000000D+00
     21 -0.551950D-01  0.980133D-01  0.000000D+00  0.416123D-01 -0.490743D-01
     22 -0.800879D-02  0.747477D-01  0.000000D+00  0.490743D-01 -0.527412D-01
     23  0.747477D-01 -0.986495D-01  0.000000D+00 -0.287431D-01  0.393105D-01
     24  0.000000D+00  0.000000D+00  0.340845D-01  0.000000D+00  0.000000D+00
     25  0.541424D-01 -0.236809D-01  0.000000D+00  0.117112D+00  0.818180D-01
     26 -0.147808D+00  0.108759D-01  0.000000D+00  0.125287D-01 -0.166183D-01
     27  0.123245D-02 -0.489247D+00  0.000000D+00  0.117111D+00 -0.818167D-01
     28  0.100826D+00  0.000000D+00  0.000000D+00  0.396108D+00  0.355768D+00
     29 -0.127715D+00  0.000000D+00  0.000000D+00 -0.355768D+00 -0.199851D+00
     30  0.000000D+00  0.295730D-01  0.000000D+00  0.195978D+00  0.239950D+00
     31  0.000000D+00  0.000000D+00  0.295730D-01  0.000000D+00  0.000000D+00
     32  0.607896D-02  0.684958D-02  0.000000D+00  0.810675D-01  0.537874D-01
     33 -0.499051D-02 -0.746761D-02  0.000000D+00 -0.537874D-01 -0.107883D-01
     34 -0.746761D-02 -0.677733D-02  0.000000D+00 -0.915831D-01 -0.722276D-01
     35  0.000000D+00  0.000000D+00  0.163695D-02  0.000000D+00  0.000000D+00
     36  0.479566D-05  0.681342D-02  0.000000D+00  0.120610D-01 -0.585455D-02
     37 -0.109270D-01  0.135626D-01  0.000000D+00  0.479855D-02 -0.573066D-02
     38  0.271691D-02  0.155926D-02  0.000000D+00  0.416121D-01  0.490740D-01
     39 -0.344846D-02 -0.225274D-02  0.000000D+00 -0.490740D-01 -0.527410D-01
     40 -0.225274D-02 -0.816084D-03  0.000000D+00 -0.287429D-01 -0.393103D-01
     41  0.000000D+00  0.000000D+00  0.476788D-03  0.000000D+00  0.000000D+00
     42  0.913886D-02  0.172448D-02  0.000000D+00  0.846401D-01  0.110524D+00
     43 -0.130798D-01 -0.278258D-02  0.000000D+00 -0.110524D+00 -0.138571D+00
     44 -0.278258D-02  0.114138D-02  0.000000D+00 -0.382039D-03 -0.594133D-03
     45  0.000000D+00  0.000000D+00  0.166645D-02  0.000000D+00  0.000000D+00
     46  0.832971D-03  0.130394D-02  0.000000D+00  0.120608D-01  0.585443D-02
     47  0.279621D-03  0.160170D-03  0.000000D+00  0.479835D-02  0.573044D-02
     48  0.152544D-02  0.518003D-04  0.000000D+00  0.125287D-01  0.166182D-01
     49 -0.826460D-02  0.482534D-02  0.208558D-01  0.486867D-02 -0.454174D-02
     50 -0.606683D-05  0.280847D-02  0.121386D-01  0.454174D-02 -0.347569D-02
     51  0.280847D-02  0.316439D-02 -0.708719D-02 -0.156990D-04  0.163035D-04
     52  0.121386D-01 -0.708719D-02 -0.258277D-01 -0.559880D-02  0.581437D-02
     53  0.000000D+00  0.000000D+00  0.408923D-01  0.154831D-01 -0.829079D-02
     54  0.960264D-02  0.000000D+00  0.000000D+00  0.829079D-02 -0.430413D-03
     55  0.000000D+00  0.960264D-02  0.000000D+00  0.456699D-02 -0.276943D-02
     56  0.000000D+00  0.000000D+00 -0.557016D-01 -0.199814D-01  0.121167D-01
     57  0.829079D-02  0.456699D-02  0.199814D-01  0.294077D-01  0.000000D+00
     58 -0.430413D-03 -0.276943D-02 -0.121167D-01  0.000000D+00  0.960264D-02
     59 -0.276943D-02  0.307159D-02 -0.667451D-02  0.000000D+00  0.000000D+00
     60 -0.121167D-01 -0.667451D-02 -0.246050D-01 -0.408923D-01  0.000000D+00
     61  0.223860D-02  0.381162D-02  0.539515D-02  0.153113D-01  0.000000D+00
     62  0.944369D-05 -0.201765D-02 -0.285587D-02  0.000000D+00  0.453898D-02
     63 -0.201765D-02 -0.224099D-02 -0.486265D-02 -0.943215D-02  0.000000D+00
     64 -0.285587D-02 -0.486265D-02 -0.568840D-02 -0.197355D-01  0.000000D+00
     65  0.000000D+00  0.288876D-02  0.308942D-02  0.470624D-02 -0.223862D-02
     66  0.672012D-03  0.000000D+00  0.000000D+00  0.223862D-02  0.948776D-05
     67  0.000000D+00 -0.260360D-02 -0.350314D-02 -0.381172D-02  0.201767D-02
     68  0.000000D+00 -0.350314D-02 -0.307446D-02 -0.539532D-02  0.285591D-02
     69 -0.225530D-02  0.400488D-02  0.569128D-02  0.275352D-02 -0.244291D-02
     70  0.116144D-03  0.203488D-02  0.289173D-02  0.244291D-02 -0.174324D-02
     71  0.203488D-02 -0.235139D-02 -0.513503D-02 -0.143083D-02  0.140438D-02
     72  0.289173D-02 -0.513503D-02 -0.603526D-02 -0.301148D-02  0.295582D-02
     73  0.309695D-02 -0.135455D-02  0.373604D-02  0.726011D-02  0.332624D-02
     74 -0.590441D-02  0.434454D-03  0.830219D-02  0.125441D-02 -0.133395D-02
     75  0.219651D-04 -0.871951D-02  0.240494D-01  0.726006D-02 -0.332620D-02
     76  0.426553D-02  0.000000D+00  0.514014D-02  0.154833D-01  0.829079D-02
     77 -0.335907D-02  0.000000D+00 -0.541707D-02 -0.829079D-02 -0.430293D-03
     78  0.000000D+00  0.113626D-02  0.000000D+00  0.456706D-02  0.276944D-02
     79 -0.541707D-02  0.000000D+00 -0.539153D-02 -0.199816D-01 -0.121167D-01
     80  0.434135D-03  0.489170D-03  0.523147D-03  0.470611D-02  0.223859D-02
     81 -0.271058D-03 -0.426162D-03 -0.455763D-03 -0.223859D-02  0.944484D-05
     82 -0.426162D-03 -0.373028D-03 -0.513539D-03 -0.381162D-02 -0.201764D-02
     83 -0.455763D-03 -0.513539D-03 -0.442050D-03 -0.539515D-02 -0.285587D-02
     84  0.000000D+00  0.647155D-03  0.498725D-03  0.121458D-02 -0.473682D-03
     85 -0.870491D-03  0.108046D-02  0.122400D-02  0.545889D-03 -0.546710D-03
     86  0.223064D-03  0.128019D-03  0.181926D-03  0.275350D-02  0.244290D-02
     87 -0.229891D-03 -0.152541D-03 -0.216774D-03 -0.244290D-02 -0.174324D-02
     88 -0.152541D-03 -0.516436D-04 -0.124409D-03 -0.143082D-02 -0.140438D-02
     89 -0.216774D-03 -0.124409D-03 -0.140894D-03 -0.301147D-02 -0.295581D-02
     90  0.651163D-03  0.122873D-03  0.531075D-03  0.486871D-02  0.454178D-02
     91 -0.730296D-03 -0.158343D-03 -0.684381D-03 -0.454178D-02 -0.347570D-02
     92 -0.158343D-03  0.789604D-04 -0.129141D-03 -0.156992D-04 -0.163036D-04
     93 -0.684381D-03 -0.129141D-03 -0.449327D-03 -0.559886D-02 -0.581442D-02
     94  0.956415D-04  0.149718D-03  0.115379D-03  0.121456D-02  0.473674D-03
     95  0.366774D-04  0.210091D-04  0.238004D-04  0.545869D-03  0.546692D-03
     96  0.175396D-03  0.595601D-05  0.113816D-03  0.125440D-02  0.133395D-02
               11            12            13            14            15
     11  0.100000D+01
     12  0.000000D+00  0.100000D+01
     13  0.401898D+00  0.000000D+00  0.100000D+01
     14 -0.164752D-05  0.000000D+00  0.000000D+00  0.100000D+01
     15 -0.332405D+00  0.000000D+00  0.000000D+00  0.000000D+00  0.100000D+01
     16  0.000000D+00  0.230728D+00  0.000000D+00  0.000000D+00  0.000000D+00
     17  0.915865D-01  0.000000D+00  0.396110D+00 -0.355770D+00  0.195976D+00
     18  0.722294D-01  0.000000D+00  0.355770D+00 -0.199853D+00  0.239949D+00
     19 -0.913529D-01  0.000000D+00 -0.195976D+00  0.239949D+00  0.103567D+00
     20  0.000000D+00  0.316329D-01  0.000000D+00  0.000000D+00  0.000000D+00
     21  0.287431D-01  0.000000D+00  0.846385D-01 -0.110522D+00 -0.381940D-03
     22  0.393105D-01  0.000000D+00  0.110522D+00 -0.138569D+00 -0.593980D-03
     23 -0.864913D-02  0.000000D+00  0.381940D-03 -0.593980D-03  0.333089D-01
     24  0.000000D+00  0.143753D-01  0.000000D+00  0.000000D+00  0.000000D+00
     25 -0.116819D+00  0.000000D+00  0.120610D-01  0.585456D-02 -0.151175D-01
     26 -0.260071D-02  0.000000D+00  0.479844D-02 -0.573053D-02 -0.332887D-02
     27 -0.116818D+00  0.000000D+00  0.120608D-01 -0.585444D-02 -0.151172D-01
     28 -0.195978D+00  0.000000D+00  0.810694D-01  0.537878D-01 -0.915855D-01
     29  0.239950D+00  0.000000D+00 -0.537878D-01 -0.107871D-01  0.722284D-01
     30  0.103563D+00  0.000000D+00  0.915855D-01  0.722284D-01 -0.913522D-01
     31  0.000000D+00  0.235741D+00  0.000000D+00  0.000000D+00  0.000000D+00
     32  0.915831D-01  0.000000D+00  0.396101D+00  0.355765D+00  0.195974D+00
     33 -0.722276D-01  0.000000D+00 -0.355765D+00 -0.199855D+00 -0.239946D+00
     34 -0.913494D-01  0.000000D+00 -0.195974D+00 -0.239946D+00  0.103561D+00
     35  0.000000D+00  0.316315D-01  0.000000D+00  0.000000D+00  0.000000D+00
     36  0.151175D-01  0.000000D+00  0.117112D+00 -0.818178D-01  0.116819D+00
     37  0.332896D-02  0.000000D+00  0.125289D-01 -0.166185D-01  0.260075D-02
     38  0.287429D-01  0.000000D+00  0.846392D-01  0.110523D+00 -0.381944D-03
     39 -0.393103D-01  0.000000D+00 -0.110523D+00 -0.138570D+00  0.593985D-03
     40 -0.864905D-02  0.000000D+00  0.381944D-03  0.593985D-03  0.333093D-01
     41  0.000000D+00  0.143752D-01  0.000000D+00  0.000000D+00  0.000000D+00
     42  0.382039D-03  0.000000D+00  0.416131D-01  0.490752D-01 -0.287437D-01
     43 -0.594133D-03  0.000000D+00 -0.490752D-01 -0.527420D-01  0.393113D-01
     44  0.333097D-01  0.000000D+00  0.287437D-01  0.393113D-01 -0.864931D-02
     45  0.000000D+00  0.333117D-01  0.000000D+00  0.000000D+00  0.000000D+00
     46  0.151173D-01  0.000000D+00  0.117112D+00  0.818169D-01  0.116820D+00
     47  0.332881D-02  0.000000D+00  0.125285D-01  0.166180D-01  0.260066D-02
     48 -0.260069D-02  0.000000D+00  0.479848D-02  0.573058D-02 -0.332890D-02
     49  0.156990D-04  0.559880D-02  0.275351D-02 -0.244291D-02 -0.143082D-02
     50  0.163035D-04  0.581437D-02  0.244291D-02 -0.174324D-02 -0.140438D-02
     51  0.124087D-02 -0.200980D-04  0.143082D-02 -0.140438D-02 -0.168034D-03
     52 -0.200980D-04 -0.592670D-02 -0.301147D-02  0.295581D-02  0.173123D-02
     53 -0.456699D-02  0.199814D-01  0.470611D-02 -0.223860D-02 -0.381162D-02
     54 -0.276943D-02  0.121167D-01  0.223860D-02  0.944369D-05 -0.201765D-02
     55  0.307159D-02  0.667451D-02  0.381162D-02 -0.201765D-02 -0.224099D-02
     56  0.667451D-02 -0.246050D-01 -0.539515D-02  0.285587D-02  0.486265D-02
     57  0.000000D+00  0.408923D-01  0.153113D-01  0.000000D+00 -0.943215D-02
     58  0.000000D+00  0.000000D+00  0.000000D+00  0.453898D-02  0.000000D+00
     59  0.960264D-02  0.000000D+00  0.943215D-02  0.000000D+00 -0.203975D-02
     60  0.000000D+00 -0.557016D-01 -0.197355D-01  0.000000D+00  0.137651D-01
     61  0.943215D-02  0.197355D-01  0.294077D-01  0.000000D+00  0.000000D+00
     62  0.000000D+00  0.000000D+00  0.000000D+00  0.960264D-02  0.000000D+00
     63 -0.203975D-02 -0.137651D-01  0.000000D+00  0.000000D+00  0.960264D-02
     64 -0.137651D-01 -0.242627D-01 -0.408923D-01  0.000000D+00  0.000000D+00
     65  0.381172D-02  0.539532D-02  0.154833D-01 -0.829083D-02  0.456701D-02
     66  0.201767D-02  0.285591D-02  0.829083D-02 -0.430301D-03  0.276941D-02
     67 -0.224104D-02 -0.486279D-02 -0.456701D-02  0.276941D-02  0.307168D-02
     68 -0.486279D-02 -0.568859D-02 -0.199817D-01  0.121168D-01 -0.667456D-02
     69  0.143083D-02  0.301148D-02  0.486864D-02 -0.454172D-02 -0.156952D-04
     70  0.140438D-02  0.295582D-02  0.454172D-02 -0.347568D-02 -0.162995D-04
     71 -0.168037D-03 -0.173124D-02  0.156952D-04 -0.162995D-04  0.124086D-02
     72 -0.173124D-02 -0.298925D-02 -0.559877D-02  0.581434D-02  0.200931D-04
     73 -0.474918D-02  0.803412D-02  0.121458D-02  0.473683D-03 -0.122313D-02
     74 -0.208759D-03  0.118456D-02  0.545878D-03 -0.546700D-03 -0.317578D-03
     75 -0.474917D-02  0.803406D-02  0.121456D-02 -0.473675D-03 -0.122311D-02
     76 -0.456706D-02  0.199816D-01  0.470619D-02  0.223859D-02 -0.381169D-02
     77  0.276944D-02 -0.121167D-01 -0.223859D-02  0.948960D-05  0.201765D-02
     78  0.307163D-02  0.667462D-02  0.381169D-02  0.201765D-02 -0.224104D-02
     79  0.667462D-02 -0.246054D-01 -0.539525D-02 -0.285588D-02  0.486275D-02
     80  0.381162D-02  0.539515D-02  0.154831D-01  0.829078D-02  0.456700D-02
     81 -0.201764D-02 -0.285587D-02 -0.829078D-02 -0.430408D-03 -0.276943D-02
     82 -0.224099D-02 -0.486265D-02 -0.456700D-02 -0.276943D-02  0.307158D-02
     83 -0.486265D-02 -0.568839D-02 -0.199814D-01 -0.121167D-01 -0.667452D-02
     84  0.122313D-02  0.114412D-02  0.726010D-02 -0.332624D-02  0.474917D-02
     85  0.317585D-03  0.485485D-03  0.125442D-02 -0.133396D-02  0.208761D-03
     86  0.143082D-02  0.301147D-02  0.486867D-02  0.454175D-02 -0.156953D-04
     87 -0.140438D-02 -0.295581D-02 -0.454175D-02 -0.347569D-02  0.162996D-04
     88 -0.168036D-03 -0.173123D-02  0.156953D-04  0.162996D-04  0.124087D-02
     89 -0.173123D-02 -0.298923D-02 -0.559881D-02 -0.581438D-02  0.200933D-04
     90  0.156992D-04  0.559886D-02  0.275356D-02  0.244294D-02 -0.143085D-02
     91 -0.163036D-04 -0.581442D-02 -0.244294D-02 -0.174325D-02  0.140440D-02
     92  0.124088D-02 -0.200982D-04  0.143085D-02  0.140440D-02 -0.168039D-03
     93 -0.200982D-04 -0.592676D-02 -0.301154D-02 -0.295586D-02  0.173127D-02
     94  0.122312D-02  0.114411D-02  0.726010D-02  0.332620D-02  0.474920D-02
     95  0.317573D-03  0.485467D-03  0.125439D-02  0.133393D-02  0.208756D-03
     96 -0.208757D-03  0.118456D-02  0.545882D-03  0.546703D-03 -0.317581D-03
               16            17            18            19            20
     16  0.100000D+01
     17  0.000000D+00  0.100000D+01
     18  0.000000D+00  0.000000D+00  0.100000D+01
     19  0.000000D+00  0.000000D+00  0.000000D+00  0.100000D+01
     20  0.235743D+00  0.000000D+00  0.000000D+00  0.000000D+00  0.100000D+01
     21  0.000000D+00  0.418185D+00 -0.363502D+00 -0.212226D+00  0.000000D+00
     22  0.000000D+00  0.363502D+00 -0.180925D+00 -0.253958D+00  0.000000D+00
     23  0.000000D+00  0.212226D+00 -0.253958D+00  0.105785D+00  0.000000D+00
     24  0.333110D-01  0.000000D+00  0.000000D+00  0.000000D+00  0.254056D+00
     25  0.000000D+00  0.107656D-02  0.833011D-03 -0.130400D-02  0.000000D+00
     26  0.000000D+00  0.129869D-01 -0.109269D-01 -0.135622D-01  0.000000D+00
     27  0.000000D+00  0.493725D-02  0.476065D-05 -0.681342D-02  0.000000D+00
     28  0.000000D+00  0.622670D-02  0.607935D-02 -0.685011D-02  0.000000D+00
     29  0.000000D+00 -0.607935D-02 -0.499074D-02  0.746813D-02  0.000000D+00
     30  0.000000D+00  0.685011D-02  0.746813D-02 -0.677788D-02  0.000000D+00
     31  0.316324D-01  0.000000D+00  0.000000D+00  0.000000D+00  0.163708D-02
     32  0.000000D+00  0.766371D-01  0.100826D+00  0.000000D+00  0.000000D+00
     33  0.000000D+00 -0.100826D+00 -0.127715D+00  0.000000D+00  0.000000D+00
     34  0.000000D+00  0.000000D+00  0.000000D+00  0.295730D-01  0.000000D+00
     35  0.235736D+00  0.000000D+00  0.000000D+00  0.000000D+00  0.295730D-01
     36  0.000000D+00  0.520189D+00  0.122346D-02  0.489247D+00  0.000000D+00
     37  0.000000D+00  0.122080D+00 -0.147806D+00 -0.108750D-01  0.000000D+00
     38  0.000000D+00  0.632582D-02  0.913909D-02 -0.172450D-02  0.000000D+00
     39  0.000000D+00 -0.913909D-02 -0.130801D-01  0.278262D-02  0.000000D+00
     40  0.000000D+00  0.172450D-02  0.278262D-02  0.114143D-02  0.000000D+00
     41  0.333113D-01  0.000000D+00  0.000000D+00  0.000000D+00  0.166650D-02
     42  0.000000D+00  0.207478D-02  0.271710D-02 -0.155938D-02  0.000000D+00
     43  0.000000D+00 -0.271710D-02 -0.344869D-02  0.225290D-02  0.000000D+00
     44  0.000000D+00  0.155938D-02  0.225290D-02 -0.816142D-03  0.000000D+00
     45  0.143756D-01  0.000000D+00  0.000000D+00  0.000000D+00  0.476827D-03
     46  0.000000D+00  0.460708D-01  0.541439D-01  0.236823D-01  0.000000D+00
     47  0.000000D+00  0.106158D-02  0.152548D-02 -0.517983D-04  0.000000D+00
     48  0.000000D+00  0.216594D-03  0.279641D-03 -0.160181D-03  0.000000D+00
     49  0.301147D-02  0.494231D-02 -0.225534D-02 -0.400486D-02  0.569128D-02
     50  0.295581D-02  0.225534D-02  0.116105D-03 -0.203490D-02  0.289178D-02
     51  0.173123D-02  0.400486D-02 -0.203490D-02 -0.235136D-02  0.513500D-02
     52 -0.298923D-02 -0.569128D-02  0.289178D-02  0.513500D-02 -0.603526D-02
     53  0.539515D-02  0.281912D-02  0.000000D+00 -0.288876D-02  0.308942D-02
     54  0.285587D-02  0.000000D+00  0.672012D-03  0.000000D+00  0.000000D+00
     55  0.486265D-02  0.288876D-02  0.000000D+00 -0.260360D-02  0.350314D-02
     56 -0.568840D-02 -0.308942D-02  0.000000D+00  0.350314D-02 -0.307446D-02
     57  0.197355D-01  0.470624D-02  0.223862D-02 -0.381172D-02  0.539532D-02
     58  0.000000D+00 -0.223862D-02  0.948776D-05  0.201767D-02 -0.285591D-02
     59  0.137651D-01  0.381172D-02  0.201767D-02 -0.224104D-02  0.486279D-02
     60 -0.242627D-01 -0.539532D-02 -0.285591D-02  0.486279D-02 -0.568859D-02
     61  0.408923D-01  0.154833D-01  0.829083D-02 -0.456701D-02  0.199817D-01
     62  0.000000D+00 -0.829083D-02 -0.430301D-03  0.276941D-02 -0.121168D-01
     63  0.000000D+00  0.456701D-02  0.276941D-02  0.307168D-02  0.667456D-02
     64 -0.557016D-01 -0.199817D-01 -0.121168D-01  0.667456D-02 -0.246055D-01
     65  0.199817D-01  0.294077D-01  0.000000D+00  0.000000D+00  0.408923D-01
     66  0.121168D-01  0.000000D+00  0.960264D-02  0.000000D+00  0.000000D+00
     67 -0.667456D-02  0.000000D+00  0.000000D+00  0.960264D-02  0.000000D+00
     68 -0.246055D-01 -0.408923D-01  0.000000D+00  0.000000D+00 -0.557016D-01
     69  0.559877D-02  0.160921D-01 -0.826464D-02 -0.482521D-02  0.208556D-01
     70  0.581434D-02  0.826464D-02 -0.622389D-05 -0.280843D-02  0.121386D-01
     71  0.200931D-04  0.482521D-02 -0.280843D-02  0.316441D-02  0.708699D-02
     72 -0.592666D-02 -0.208556D-01  0.121386D-01  0.708699D-02 -0.258274D-01
     73  0.114413D-02  0.141318D-03  0.956457D-04 -0.149724D-03  0.115384D-03
     74  0.485475D-03  0.129313D-02 -0.870487D-03 -0.108043D-02  0.122398D-02
     75  0.114410D-02  0.559814D-03  0.000000D+00 -0.647155D-03  0.498726D-03
     76  0.539525D-02  0.543409D-03  0.434159D-03 -0.489203D-03  0.523184D-03
     77 -0.285588D-02 -0.434159D-03 -0.271066D-03  0.426186D-03 -0.455790D-03
     78  0.486275D-02  0.489203D-03  0.426186D-03 -0.373053D-03  0.513576D-03
     79 -0.568852D-02 -0.523184D-03 -0.455790D-03  0.513576D-03 -0.442084D-03
     80  0.199814D-01  0.450174D-02  0.426553D-02  0.000000D+00  0.514014D-02
     81 -0.121167D-01 -0.426553D-02 -0.335907D-02  0.000000D+00 -0.541707D-02
     82 -0.667452D-02  0.000000D+00  0.000000D+00  0.113626D-02  0.000000D+00
     83 -0.246050D-01 -0.514014D-02 -0.541707D-02  0.000000D+00 -0.539153D-02
     84  0.803411D-02  0.193168D-01  0.218048D-04  0.871951D-02  0.240494D-01
     85  0.118458D-02  0.747835D-02 -0.590437D-02 -0.434421D-03  0.830210D-02
     86  0.559881D-02  0.551055D-03  0.651177D-03 -0.122874D-03  0.531088D-03
     87 -0.581438D-02 -0.651177D-03 -0.730311D-03  0.158344D-03 -0.684397D-03
     88  0.200933D-04  0.122874D-03  0.158344D-03  0.789633D-04  0.129142D-03
     89 -0.592670D-02 -0.531088D-03 -0.684397D-03  0.129142D-03 -0.449339D-03
     90  0.301154D-02  0.202609D-03  0.223078D-03 -0.128027D-03  0.181938D-03
     91 -0.295586D-02 -0.223078D-03 -0.229904D-03  0.152550D-03 -0.216788D-03
     92  0.173127D-02  0.128027D-03  0.152550D-03 -0.516467D-04  0.124418D-03
     93 -0.298930D-02 -0.181938D-03 -0.216788D-03  0.124418D-03 -0.140905D-03
     94  0.803411D-02  0.361913D-02  0.309700D-02  0.135461D-02  0.373614D-02
     95  0.118454D-02  0.139508D-03  0.175399D-03 -0.595576D-05  0.113819D-03
     96  0.485478D-03  0.317112D-04  0.366798D-04 -0.210106D-04  0.238021D-04
               21            22            23            24            25
     21  0.100000D+01
     22  0.000000D+00  0.100000D+01
     23  0.000000D+00  0.000000D+00  0.100000D+01
     24  0.000000D+00  0.000000D+00  0.000000D+00  0.100000D+01
     25  0.615268D-03  0.675945D-03 -0.588246D-03  0.000000D+00  0.100000D+01
     26  0.116093D+00 -0.615788D-01 -0.127368D+00  0.000000D+00  0.880750D-03
     27  0.126731D-01  0.593719D-02 -0.159385D-01  0.000000D+00  0.615645D-01
     28  0.207471D-02  0.271701D-02 -0.155933D-02  0.000000D+00  0.520195D+00
     29 -0.271701D-02 -0.344858D-02  0.225283D-02  0.000000D+00 -0.122347D-02
     30  0.155933D-02  0.225283D-02 -0.816123D-03  0.000000D+00 -0.489250D+00
     31  0.000000D+00  0.000000D+00  0.000000D+00  0.476810D-03  0.000000D+00
     32  0.632552D-02  0.913867D-02  0.172444D-02  0.000000D+00  0.493725D-02
     33 -0.913867D-02 -0.130796D-01 -0.278252D-02  0.000000D+00 -0.479566D-05
     34 -0.172444D-02 -0.278252D-02  0.114136D-02  0.000000D+00 -0.681342D-02
     35  0.000000D+00  0.000000D+00  0.000000D+00  0.166641D-02  0.000000D+00
     36  0.121264D+00  0.818782D-01  0.122436D+00  0.000000D+00  0.164370D-03
     37  0.520729D+00 -0.425570D+00  0.241950D+00  0.000000D+00  0.701853D-04
     38  0.463416D-03  0.715527D-03  0.000000D+00  0.000000D+00  0.126733D-01
     39 -0.715527D-03 -0.111335D-02  0.000000D+00  0.000000D+00 -0.593731D-02
     40  0.000000D+00  0.000000D+00  0.898000D-04  0.000000D+00 -0.159387D-01
     41  0.000000D+00  0.000000D+00  0.000000D+00  0.898000D-04  0.000000D+00
     42  0.279197D-03  0.415856D-03 -0.121066D-03  0.000000D+00  0.121265D+00
     43 -0.415856D-03 -0.620724D-03  0.195614D-03  0.000000D+00 -0.818782D-01
     44  0.121066D-03  0.195614D-03 -0.574589D-05  0.000000D+00 -0.122437D+00
     45  0.000000D+00  0.000000D+00  0.000000D+00  0.512024D-04  0.000000D+00
     46  0.333997D-02  0.419340D-02  0.203279D-02  0.000000D+00  0.585154D-03
     47  0.635610D-04  0.960227D-04  0.887390D-05  0.000000D+00  0.233178D-02
     48  0.303519D-04  0.440315D-04 -0.148041D-04  0.000000D+00  0.627495D-01
     49  0.155400D-01  0.000000D+00 -0.947611D-02  0.200629D-01  0.395406D-03
     50  0.000000D+00  0.461642D-02  0.000000D+00  0.000000D+00  0.421675D-03
     51  0.947611D-02  0.000000D+00 -0.192784D-02  0.138555D-01 -0.204409D-03
     52 -0.200629D-01  0.000000D+00  0.138555D-01 -0.247186D-01 -0.344164D-03
     53  0.494231D-02  0.225530D-02 -0.400488D-02  0.569128D-02  0.361903D-02
     54 -0.225530D-02  0.116144D-03  0.203488D-02 -0.289173D-02  0.309695D-02
     55  0.400488D-02  0.203488D-02 -0.235139D-02  0.513503D-02 -0.135455D-02
     56 -0.569128D-02 -0.289173D-02  0.513503D-02 -0.603526D-02 -0.373604D-02
     57  0.275352D-02  0.244291D-02 -0.143083D-02  0.301148D-02  0.726011D-02
     58 -0.244291D-02 -0.174324D-02  0.140438D-02 -0.295582D-02  0.332624D-02
     59  0.143083D-02  0.140438D-02 -0.168037D-03  0.173124D-02 -0.474918D-02
     60 -0.301148D-02 -0.295582D-02  0.173124D-02 -0.298925D-02 -0.803412D-02
     61  0.486864D-02  0.454172D-02  0.156952D-04  0.559877D-02  0.121458D-02
     62 -0.454172D-02 -0.347568D-02 -0.162995D-04 -0.581434D-02  0.473683D-03
     63 -0.156952D-04 -0.162995D-04  0.124086D-02 -0.200931D-04 -0.122313D-02
     64 -0.559877D-02 -0.581434D-02 -0.200931D-04 -0.592666D-02 -0.114413D-02
     65  0.160921D-01  0.826464D-02  0.482521D-02  0.208556D-01  0.141318D-03
     66 -0.826464D-02 -0.622389D-05 -0.280843D-02 -0.121386D-01  0.956457D-04
     67 -0.482521D-02 -0.280843D-02  0.316441D-02 -0.708699D-02 -0.149724D-03
     68 -0.208556D-01 -0.121386D-01 -0.708699D-02 -0.258274D-01 -0.115384D-03
     69  0.294077D-01  0.000000D+00  0.000000D+00  0.408923D-01  0.842337D-04
     70  0.000000D+00  0.960264D-02  0.000000D+00  0.000000D+00  0.817691D-04
     71  0.000000D+00  0.000000D+00  0.960264D-02  0.000000D+00 -0.711601D-04
     72 -0.408923D-01  0.000000D+00  0.000000D+00 -0.557016D-01 -0.667386D-04
     73  0.842337D-04  0.817691D-04 -0.711601D-04  0.667386D-04  0.258049D-01
     74  0.721492D-02 -0.251262D-02 -0.519702D-02  0.797876D-02  0.136814D-03
     75  0.126664D-02  0.475433D-03 -0.127631D-02  0.119700D-02  0.512934D-02
     76  0.202603D-03  0.223071D-03 -0.128024D-03  0.181933D-03  0.193169D-01
     77 -0.223071D-03 -0.229898D-03  0.152546D-03 -0.216782D-03 -0.218050D-04
     78  0.128024D-03  0.152546D-03 -0.516458D-04  0.124414D-03 -0.871950D-02
     79 -0.181933D-03 -0.216782D-03  0.124414D-03 -0.140900D-03 -0.240496D-01
     80  0.551032D-03  0.651152D-03  0.122870D-03  0.531064D-03  0.559814D-03
     81 -0.651152D-03 -0.730285D-03 -0.158340D-03 -0.684368D-03  0.000000D+00
     82 -0.122870D-03 -0.158340D-03  0.789589D-04 -0.129138D-03 -0.647155D-03
     83 -0.531064D-03 -0.684368D-03 -0.129138D-03 -0.449317D-03 -0.498725D-03
     84  0.744276D-02  0.328010D-02  0.490487D-02  0.825833D-02  0.288518D-04
     85  0.193287D-01 -0.757869D-02  0.430873D-02  0.240662D-01  0.129516D-04
     86  0.510100D-04  0.678962D-04  0.000000D+00  0.418492D-04  0.126666D-02
     87 -0.678962D-04 -0.890431D-04  0.000000D+00 -0.597099D-04 -0.475441D-03
     88  0.000000D+00  0.000000D+00  0.783023D-05  0.000000D+00 -0.127633D-02
     89 -0.418492D-04 -0.597099D-04  0.000000D+00 -0.289732D-04 -0.119702D-02
     90  0.318034D-04  0.411050D-04 -0.119667D-04  0.253360D-04  0.744280D-02
     91 -0.411050D-04 -0.521234D-04  0.165288D-04 -0.349950D-04 -0.328009D-02
     92  0.119667D-04  0.165288D-04  0.000000D+00  0.101879D-04 -0.490490D-02
     93 -0.253360D-04 -0.349950D-04  0.101879D-04 -0.169176D-04 -0.825838D-02
     94  0.395410D-03  0.421678D-03  0.204412D-03  0.344168D-03  0.939292D-04
     95  0.992079D-05  0.135689D-04  0.125396D-05  0.700397D-05  0.331678D-03
     96  0.489166D-05  0.645204D-05 -0.216928D-05  0.333041D-05  0.520155D-02
               26            27            28            29            30
     26  0.100000D+01
     27  0.627490D-01  0.100000D+01
     28  0.106161D-02  0.460704D-01  0.100000D+01
     29 -0.152551D-02 -0.541436D-01  0.000000D+00  0.100000D+01
     30  0.518028D-04 -0.236818D-01  0.000000D+00  0.000000D+00  0.100000D+01
     31  0.000000D+00  0.000000D+00  0.000000D+00  0.000000D+00  0.000000D+00
     32  0.216583D-03  0.107649D-02  0.428270D-01  0.000000D+00  0.584418D-01
     33 -0.279627D-03 -0.832964D-03  0.000000D+00  0.148670D-01  0.000000D+00
     34 -0.160173D-03 -0.130392D-02 -0.584418D-01  0.000000D+00 -0.777004D-01
     35  0.000000D+00  0.000000D+00  0.000000D+00  0.000000D+00  0.000000D+00
     36  0.233181D-02  0.585154D-03  0.107654D-02 -0.832994D-03  0.130397D-02
     37  0.608514D-01  0.233179D-02  0.216596D-03 -0.279643D-03  0.160184D-03
     38  0.303519D-04  0.615259D-03  0.862692D-01  0.551949D-01  0.980113D-01
     39 -0.440315D-04 -0.675935D-03 -0.551949D-01 -0.800992D-02 -0.747472D-01
     40 -0.148041D-04 -0.588239D-03 -0.980113D-01 -0.747472D-01 -0.986471D-01
     41  0.000000D+00  0.000000D+00  0.000000D+00  0.000000D+00  0.000000D+00
     42  0.635641D-04  0.333997D-02  0.418187D+00  0.363501D+00  0.212230D+00
     43 -0.960273D-04 -0.419339D-02 -0.363501D+00 -0.180920D+00 -0.253962D+00
     44 -0.887437D-05 -0.203279D-02 -0.212230D+00 -0.253962D+00  0.105781D+00
     45  0.000000D+00  0.000000D+00  0.000000D+00  0.000000D+00  0.000000D+00
     46  0.701843D-04  0.164365D-03  0.493715D-02 -0.477805D-05  0.681329D-02
     47  0.333018D-05  0.701818D-04  0.129865D-01  0.109266D-01  0.135619D-01
     48  0.101296D-04  0.880745D-03  0.122077D+00  0.147803D+00  0.108755D-01
     49  0.193286D-01  0.744268D-02  0.551053D-03 -0.651175D-03  0.122875D-03
     50 -0.757872D-02  0.328006D-02  0.651175D-03 -0.730308D-03  0.158346D-03
     51 -0.430871D-02 -0.490484D-02 -0.122875D-03  0.158346D-03  0.789620D-04
     52 -0.240661D-01 -0.825823D-02 -0.531086D-03  0.684394D-03 -0.129144D-03
     53  0.747843D-02  0.193168D-01  0.450174D-02 -0.426553D-02  0.000000D+00
     54 -0.590441D-02  0.219651D-04  0.426553D-02 -0.335907D-02  0.000000D+00
     55  0.434454D-03 -0.871951D-02  0.000000D+00  0.000000D+00  0.113626D-02
     56 -0.830219D-02 -0.240494D-01 -0.514014D-02  0.541707D-02  0.000000D+00
     57  0.125441D-02  0.726006D-02  0.154833D-01 -0.829079D-02  0.456706D-02
     58 -0.133395D-02 -0.332620D-02  0.829079D-02 -0.430293D-03  0.276944D-02
     59 -0.208759D-03 -0.474917D-02 -0.456706D-02  0.276944D-02  0.307163D-02
     60 -0.118456D-02 -0.803406D-02 -0.199816D-01  0.121167D-01 -0.667462D-02
     61  0.545878D-03  0.121456D-02  0.470619D-02 -0.223859D-02  0.381169D-02
     62 -0.546700D-03 -0.473675D-03  0.223859D-02  0.948960D-05  0.201765D-02
     63 -0.317578D-03 -0.122311D-02 -0.381169D-02  0.201765D-02 -0.224104D-02
     64 -0.485475D-03 -0.114410D-02 -0.539525D-02  0.285588D-02 -0.486275D-02
     65  0.129313D-02  0.559814D-03  0.543409D-03 -0.434159D-03  0.489203D-03
     66 -0.870487D-03  0.000000D+00  0.434159D-03 -0.271066D-03  0.426186D-03
     67 -0.108043D-02 -0.647155D-03 -0.489203D-03  0.426186D-03 -0.373053D-03
     68 -0.122398D-02 -0.498726D-03 -0.523184D-03  0.455790D-03 -0.513576D-03
     69  0.721492D-02  0.126664D-02  0.202603D-03 -0.223071D-03  0.128024D-03
     70 -0.251262D-02  0.475433D-03  0.223071D-03 -0.229898D-03  0.152546D-03
     71 -0.519702D-02 -0.127631D-02 -0.128024D-03  0.152546D-03 -0.516458D-04
     72 -0.797876D-02 -0.119700D-02 -0.181933D-03  0.216782D-03 -0.124414D-03
     73  0.136814D-03  0.512934D-02  0.193169D-01 -0.218050D-04 -0.871950D-02
     74  0.258049D-01  0.520152D-02  0.139510D-03 -0.175402D-03  0.595626D-05
     75  0.520152D-02  0.258049D-01  0.361910D-02 -0.309699D-02 -0.135459D-02
     76  0.139510D-03  0.361910D-02  0.294077D-01  0.000000D+00  0.000000D+00
     77 -0.175402D-03 -0.309699D-02  0.000000D+00  0.960264D-02  0.000000D+00
     78  0.595626D-05 -0.135459D-02  0.000000D+00  0.000000D+00  0.960264D-02
     79 -0.113821D-03 -0.373612D-02 -0.408923D-01  0.000000D+00  0.000000D+00
     80  0.317096D-04  0.141310D-03  0.281908D-02  0.000000D+00  0.288872D-02
     81 -0.366781D-04 -0.956408D-04  0.000000D+00  0.672000D-03  0.000000D+00
     82 -0.210096D-04 -0.149716D-03 -0.288872D-02  0.000000D+00 -0.260357D-02
     83 -0.238009D-04 -0.115377D-03 -0.308937D-02  0.000000D+00 -0.350309D-02
     84  0.331681D-03  0.939292D-04  0.141316D-03 -0.956440D-04  0.149722D-03
     85  0.508563D-02  0.331679D-03  0.317115D-04 -0.366801D-04  0.210108D-04
     86  0.489166D-05  0.842326D-04  0.494224D-02  0.225531D-02  0.400482D-02
     87 -0.645204D-05 -0.817679D-04 -0.225531D-02  0.116105D-03 -0.203488D-02
     88 -0.216928D-05 -0.711593D-04 -0.400482D-02 -0.203488D-02 -0.235135D-02
     89 -0.333041D-05 -0.667377D-04 -0.569120D-02 -0.289174D-02 -0.513495D-02
     90  0.992126D-05  0.395410D-03  0.160921D-01  0.826460D-02  0.482530D-02
     91 -0.135695D-04 -0.421677D-03 -0.826460D-02 -0.614423D-05 -0.280846D-02
     92 -0.125403D-05 -0.204412D-03 -0.482530D-02 -0.280846D-02  0.316437D-02
     93 -0.700431D-05 -0.344167D-03 -0.208556D-01 -0.121386D-01 -0.708713D-02
     94  0.129514D-04  0.288510D-04  0.559805D-03  0.000000D+00  0.647144D-03
     95  0.000000D+00  0.129510D-04  0.129310D-02  0.870469D-03  0.108041D-02
     96  0.203514D-05  0.136813D-03  0.747825D-02  0.590432D-02  0.434443D-03
               31            32            33            34            35
     31  0.100000D+01
     32  0.000000D+00  0.100000D+01
     33  0.000000D+00  0.000000D+00  0.100000D+01
     34  0.000000D+00  0.000000D+00  0.000000D+00  0.100000D+01
     35  0.148670D-01  0.000000D+00  0.000000D+00  0.000000D+00  0.100000D+01
     36  0.000000D+00  0.460693D-01 -0.541424D-01  0.236809D-01  0.000000D+00
     37  0.000000D+00  0.106158D-02 -0.152547D-02 -0.518016D-04  0.000000D+00
     38  0.000000D+00  0.418191D+00  0.363503D+00 -0.212233D+00  0.000000D+00
     39  0.000000D+00 -0.363503D+00 -0.180916D+00  0.253964D+00  0.000000D+00
     40  0.000000D+00  0.212233D+00  0.253964D+00  0.105783D+00  0.000000D+00
     41  0.340838D-01  0.000000D+00  0.000000D+00  0.000000D+00  0.254061D+00
     42  0.000000D+00  0.862716D-01  0.551952D-01 -0.980144D-01  0.000000D+00
     43  0.000000D+00 -0.551952D-01 -0.800824D-02  0.747480D-01  0.000000D+00
     44  0.000000D+00  0.980144D-01  0.747480D-01 -0.986508D-01  0.000000D+00
     45  0.254057D+00  0.000000D+00  0.000000D+00  0.000000D+00  0.340849D-01
     46  0.000000D+00  0.520189D+00 -0.123695D-02  0.489247D+00  0.000000D+00
     47  0.000000D+00  0.122079D+00  0.147806D+00 -0.108757D-01  0.000000D+00
     48  0.000000D+00  0.129870D-01  0.109269D-01 -0.135624D-01  0.000000D+00
     49  0.531086D-03  0.202595D-03 -0.223064D-03 -0.128019D-03  0.181926D-03
     50  0.684394D-03  0.223064D-03 -0.229891D-03 -0.152541D-03  0.216774D-03
     51 -0.129144D-03  0.128019D-03 -0.152541D-03 -0.516436D-04  0.124409D-03
     52 -0.449337D-03 -0.181926D-03  0.216774D-03  0.124409D-03 -0.140895D-03
     53  0.514014D-02  0.543374D-03 -0.434135D-03 -0.489170D-03  0.523147D-03
     54  0.541707D-02  0.434135D-03 -0.271058D-03 -0.426162D-03  0.455763D-03
     55  0.000000D+00  0.489170D-03 -0.426162D-03 -0.373028D-03  0.513539D-03
     56 -0.539153D-02 -0.523147D-03  0.455763D-03  0.513539D-03 -0.442050D-03
     57  0.199816D-01  0.470611D-02 -0.223859D-02 -0.381162D-02  0.539515D-02
     58  0.121167D-01  0.223859D-02  0.944484D-05 -0.201764D-02  0.285587D-02
     59 -0.667462D-02  0.381162D-02 -0.201764D-02 -0.224099D-02  0.486265D-02
     60 -0.246054D-01 -0.539515D-02  0.285587D-02  0.486265D-02 -0.568839D-02
     61  0.539525D-02  0.154831D-01 -0.829078D-02 -0.456700D-02  0.199814D-01
     62  0.285588D-02  0.829078D-02 -0.430408D-03 -0.276943D-02  0.121167D-01
     63 -0.486275D-02  0.456700D-02 -0.276943D-02  0.307158D-02  0.667452D-02
     64 -0.568852D-02 -0.199814D-01  0.121167D-01  0.667452D-02 -0.246050D-01
     65  0.523184D-03  0.450174D-02 -0.426553D-02  0.000000D+00  0.514014D-02
     66  0.455790D-03  0.426553D-02 -0.335907D-02  0.000000D+00  0.541707D-02
     67 -0.513576D-03  0.000000D+00  0.000000D+00  0.113626D-02  0.000000D+00
     68 -0.442084D-03 -0.514014D-02  0.541707D-02  0.000000D+00 -0.539153D-02
     69  0.181933D-03  0.551032D-03 -0.651152D-03 -0.122870D-03  0.531064D-03
     70  0.216782D-03  0.651152D-03 -0.730285D-03 -0.158340D-03  0.684368D-03
     71 -0.124414D-03  0.122870D-03 -0.158340D-03  0.789589D-04  0.129138D-03
     72 -0.140900D-03 -0.531064D-03  0.684368D-03  0.129138D-03 -0.449317D-03
     73  0.240496D-01  0.559814D-03  0.000000D+00 -0.647155D-03  0.498725D-03
     74  0.113821D-03  0.317096D-04 -0.366781D-04 -0.210096D-04  0.238009D-04
     75  0.373612D-02  0.141310D-03 -0.956408D-04 -0.149716D-03  0.115377D-03
     76  0.408923D-01  0.281908D-02  0.000000D+00 -0.288872D-02  0.308937D-02
     77  0.000000D+00  0.000000D+00  0.672000D-03  0.000000D+00  0.000000D+00
     78  0.000000D+00  0.288872D-02  0.000000D+00 -0.260357D-02  0.350309D-02
     79 -0.557016D-01 -0.308937D-02  0.000000D+00  0.350309D-02 -0.307440D-02
     80  0.308937D-02  0.294077D-01  0.000000D+00  0.000000D+00  0.408923D-01
     81  0.000000D+00  0.000000D+00  0.960264D-02  0.000000D+00  0.000000D+00
     82 -0.350309D-02  0.000000D+00  0.000000D+00  0.960264D-02  0.000000D+00
     83 -0.307440D-02 -0.408923D-01  0.000000D+00  0.000000D+00 -0.557016D-01
     84  0.115382D-03  0.361903D-02 -0.309695D-02  0.135455D-02  0.373604D-02
     85  0.238023D-04  0.139508D-03 -0.175399D-03 -0.595614D-05  0.113819D-03
     86  0.569120D-02  0.160923D-01  0.826460D-02 -0.482533D-02  0.208558D-01
     87 -0.289174D-02 -0.826460D-02 -0.606704D-05  0.280846D-02 -0.121386D-01
     88 -0.513495D-02  0.482533D-02  0.280846D-02  0.316440D-02  0.708719D-02
     89 -0.603516D-02 -0.208558D-01 -0.121386D-01  0.708719D-02 -0.258277D-01
     90  0.208556D-01  0.494235D-02  0.225530D-02 -0.400491D-02  0.569133D-02
     91 -0.121386D-01 -0.225530D-02  0.116164D-03  0.203488D-02 -0.289174D-02
     92 -0.708713D-02  0.400491D-02  0.203488D-02 -0.235141D-02  0.513508D-02
     93 -0.258275D-01 -0.569133D-02 -0.289174D-02  0.513508D-02 -0.603532D-02
     94  0.498716D-03  0.193168D-01 -0.220453D-04  0.871951D-02  0.240494D-01
     95  0.122395D-02  0.747834D-02  0.590436D-02 -0.434448D-03  0.830209D-02
     96  0.830198D-02  0.129314D-02  0.870486D-03 -0.108044D-02  0.122399D-02
               36            37            38            39            40
     36  0.100000D+01
     37  0.627504D-01  0.100000D+01
     38  0.333994D-02  0.635641D-04  0.100000D+01
     39 -0.419337D-02 -0.960274D-04  0.000000D+00  0.100000D+01
     40  0.203276D-02  0.887436D-05  0.000000D+00  0.000000D+00  0.100000D+01
     41  0.000000D+00  0.000000D+00  0.000000D+00  0.000000D+00  0.000000D+00
     42  0.615279D-03  0.303534D-04  0.398147D+00 -0.287640D-05 -0.407575D+00
     43 -0.675957D-03 -0.440336D-04  0.287640D-05  0.237410D+00 -0.401758D-05
     44  0.588257D-03  0.148049D-04  0.407575D+00 -0.401758D-05 -0.331866D+00
     45  0.000000D+00  0.000000D+00  0.000000D+00  0.000000D+00  0.000000D+00
     46  0.615655D-01  0.880781D-03  0.121261D+00 -0.818766D-01  0.122433D+00
     47  0.880733D-03  0.101296D-04  0.520720D+00  0.425567D+00  0.241943D+00
     48  0.701841D-04  0.333034D-05  0.116093D+00  0.615788D-01 -0.127368D+00
     49  0.126666D-02  0.721496D-02  0.318027D-04 -0.411041D-04 -0.119664D-04
     50  0.475442D-03 -0.251261D-02  0.411041D-04 -0.521223D-04 -0.165284D-04
     51  0.127633D-02  0.519705D-02  0.119664D-04 -0.165284D-04  0.000000D+00
     52 -0.119702D-02 -0.797881D-02 -0.253354D-04  0.349941D-04  0.101876D-04
     53  0.559814D-03  0.129315D-02  0.202595D-03 -0.223064D-03 -0.128019D-03
     54  0.000000D+00 -0.870491D-03  0.223064D-03 -0.229891D-03 -0.152541D-03
     55  0.647155D-03  0.108046D-02  0.128019D-03 -0.152541D-03 -0.516436D-04
     56 -0.498725D-03 -0.122400D-02 -0.181926D-03  0.216774D-03  0.124409D-03
     57  0.121458D-02  0.545889D-03  0.275350D-02 -0.244290D-02 -0.143082D-02
     58 -0.473682D-03 -0.546710D-03  0.244290D-02 -0.174324D-02 -0.140438D-02
     59  0.122313D-02  0.317585D-03  0.143082D-02 -0.140438D-02 -0.168036D-03
     60 -0.114412D-02 -0.485485D-03 -0.301147D-02  0.295581D-02  0.173123D-02
     61  0.726010D-02  0.125442D-02  0.486867D-02 -0.454175D-02  0.156953D-04
     62 -0.332624D-02 -0.133396D-02  0.454175D-02 -0.347569D-02  0.162996D-04
     63  0.474917D-02  0.208761D-03 -0.156953D-04  0.162996D-04  0.124087D-02
     64 -0.803411D-02 -0.118458D-02 -0.559881D-02  0.581438D-02 -0.200933D-04
     65  0.193168D-01  0.747835D-02  0.551055D-03 -0.651177D-03  0.122874D-03
     66  0.218048D-04 -0.590437D-02  0.651177D-03 -0.730311D-03  0.158344D-03
     67  0.871951D-02 -0.434421D-03 -0.122874D-03  0.158344D-03  0.789633D-04
     68 -0.240494D-01 -0.830210D-02 -0.531088D-03  0.684397D-03 -0.129142D-03
     69  0.744276D-02  0.193287D-01  0.510100D-04 -0.678962D-04  0.000000D+00
     70  0.328010D-02 -0.757869D-02  0.678962D-04 -0.890431D-04  0.000000D+00
     71  0.490487D-02  0.430873D-02  0.000000D+00  0.000000D+00  0.783023D-05
     72 -0.825833D-02 -0.240662D-01 -0.418492D-04  0.597099D-04  0.000000D+00
     73  0.288518D-04  0.129516D-04  0.126666D-02 -0.475441D-03 -0.127633D-02
     74  0.331681D-03  0.508563D-02  0.489166D-05 -0.645204D-05 -0.216928D-05
     75  0.939292D-04  0.331679D-03  0.842326D-04 -0.817679D-04 -0.711593D-04
     76  0.141316D-03  0.317115D-04  0.494224D-02 -0.225531D-02 -0.400482D-02
     77 -0.956440D-04 -0.366801D-04  0.225531D-02  0.116105D-03 -0.203488D-02
     78  0.149722D-03  0.210108D-04  0.400482D-02 -0.203488D-02 -0.235135D-02
     79 -0.115382D-03 -0.238023D-04 -0.569120D-02  0.289174D-02  0.513495D-02
     80  0.361903D-02  0.139508D-03  0.160923D-01 -0.826460D-02  0.482533D-02
     81 -0.309695D-02 -0.175399D-03  0.826460D-02 -0.606704D-05  0.280846D-02
     82  0.135455D-02 -0.595614D-05 -0.482533D-02  0.280846D-02  0.316440D-02
     83 -0.373604D-02 -0.113819D-03 -0.208558D-01  0.121386D-01 -0.708719D-02
     84  0.258049D-01  0.520160D-02  0.395407D-03 -0.421675D-03  0.204409D-03
     85  0.520160D-02  0.258049D-01  0.992126D-05 -0.135695D-04  0.125403D-05
     86  0.395407D-03  0.992126D-05  0.294077D-01  0.000000D+00  0.000000D+00
     87 -0.421675D-03 -0.135695D-04  0.000000D+00  0.960264D-02  0.000000D+00
     88  0.204409D-03  0.125403D-05  0.000000D+00  0.000000D+00  0.960264D-02
     89 -0.344164D-03 -0.700431D-05 -0.408923D-01  0.000000D+00  0.000000D+00
     90  0.842352D-04  0.489189D-05  0.155400D-01  0.000000D+00 -0.947611D-02
     91 -0.817703D-04 -0.645234D-05  0.000000D+00  0.461642D-02  0.000000D+00
     92  0.711614D-04  0.216939D-05  0.947611D-02  0.000000D+00 -0.192784D-02
     93 -0.667398D-04 -0.333057D-05 -0.200629D-01  0.000000D+00  0.138555D-01
     94  0.512940D-02  0.136818D-03  0.744264D-02 -0.328007D-02  0.490481D-02
     95  0.136811D-03  0.203514D-05  0.193285D-01  0.757876D-02  0.430867D-02
     96  0.129514D-04  0.000000D+00  0.721492D-02  0.251262D-02 -0.519702D-02
               41            42            43            44            45
     41  0.100000D+01
     42  0.000000D+00  0.100000D+01
     43  0.000000D+00  0.000000D+00  0.100000D+01
     44  0.000000D+00  0.000000D+00  0.000000D+00  0.100000D+01
     45  0.237410D+00  0.000000D+00  0.000000D+00  0.000000D+00  0.100000D+01
     46  0.000000D+00  0.126731D-01 -0.593720D-02  0.159385D-01  0.000000D+00
     47  0.000000D+00  0.116092D+00  0.615791D-01  0.127366D+00  0.000000D+00
     48  0.000000D+00  0.520719D+00  0.425567D+00 -0.241944D+00  0.000000D+00
     49  0.253354D-04  0.510112D-04 -0.678977D-04  0.000000D+00  0.418502D-04
     50  0.349941D-04  0.678977D-04 -0.890451D-04  0.000000D+00  0.597114D-04
     51  0.101876D-04  0.000000D+00  0.000000D+00  0.783043D-05  0.000000D+00
     52 -0.169171D-04 -0.418502D-04  0.597114D-04  0.000000D+00 -0.289740D-04
     53  0.181926D-03  0.551042D-03 -0.651163D-03 -0.122873D-03  0.531075D-03
     54  0.216774D-03  0.651163D-03 -0.730296D-03 -0.158343D-03  0.684381D-03
     55  0.124409D-03  0.122873D-03 -0.158343D-03  0.789604D-04  0.129141D-03
     56 -0.140894D-03 -0.531075D-03  0.684381D-03  0.129141D-03 -0.449327D-03
     57  0.301147D-02  0.486871D-02 -0.454178D-02 -0.156992D-04  0.559886D-02
     58  0.295581D-02  0.454178D-02 -0.347570D-02 -0.163036D-04  0.581442D-02
     59  0.173123D-02  0.156992D-04 -0.163036D-04  0.124088D-02  0.200982D-04
     60 -0.298923D-02 -0.559886D-02  0.581442D-02  0.200982D-04 -0.592676D-02
     61  0.559881D-02  0.275356D-02 -0.244294D-02  0.143085D-02  0.301154D-02
     62  0.581438D-02  0.244294D-02 -0.174325D-02  0.140440D-02  0.295586D-02
     63 -0.200933D-04 -0.143085D-02  0.140440D-02 -0.168039D-03 -0.173127D-02
     64 -0.592670D-02 -0.301154D-02  0.295586D-02 -0.173127D-02 -0.298930D-02
     65  0.531088D-03  0.202609D-03 -0.223078D-03  0.128027D-03  0.181938D-03
     66  0.684397D-03  0.223078D-03 -0.229904D-03  0.152550D-03  0.216788D-03
     67 -0.129142D-03 -0.128027D-03  0.152550D-03 -0.516467D-04 -0.124418D-03
     68 -0.449339D-03 -0.181938D-03  0.216788D-03 -0.124418D-03 -0.140905D-03
     69  0.418492D-04  0.318034D-04 -0.411050D-04  0.119667D-04  0.253360D-04
     70  0.597099D-04  0.411050D-04 -0.521234D-04  0.165288D-04  0.349950D-04
     71  0.000000D+00 -0.119667D-04  0.165288D-04  0.000000D+00 -0.101879D-04
     72 -0.289732D-04 -0.253360D-04  0.349950D-04 -0.101879D-04 -0.169176D-04
     73  0.119702D-02  0.744280D-02 -0.328009D-02 -0.490490D-02  0.825838D-02
     74  0.333041D-05  0.992126D-05 -0.135695D-04 -0.125403D-05  0.700431D-05
     75  0.667377D-04  0.395410D-03 -0.421677D-03 -0.204412D-03  0.344167D-03
     76  0.569120D-02  0.160921D-01 -0.826460D-02 -0.482530D-02  0.208556D-01
     77  0.289174D-02  0.826460D-02 -0.614423D-05 -0.280846D-02  0.121386D-01
     78  0.513495D-02  0.482530D-02 -0.280846D-02  0.316437D-02  0.708713D-02
     79 -0.603516D-02 -0.208556D-01  0.121386D-01  0.708713D-02 -0.258275D-01
     80  0.208558D-01  0.494235D-02 -0.225530D-02  0.400491D-02  0.569133D-02
     81  0.121386D-01  0.225530D-02  0.116164D-03  0.203488D-02  0.289174D-02
     82 -0.708719D-02 -0.400491D-02  0.203488D-02 -0.235141D-02 -0.513508D-02
     83 -0.258277D-01 -0.569133D-02  0.289174D-02 -0.513508D-02 -0.603532D-02
     84  0.344164D-03  0.842352D-04 -0.817703D-04  0.711614D-04  0.667398D-04
     85  0.700431D-05  0.489189D-05 -0.645234D-05  0.216939D-05  0.333057D-05
     86  0.408923D-01  0.155400D-01  0.000000D+00  0.947611D-02  0.200629D-01
     87  0.000000D+00  0.000000D+00  0.461642D-02  0.000000D+00  0.000000D+00
     88  0.000000D+00 -0.947611D-02  0.000000D+00 -0.192784D-02 -0.138555D-01
     89 -0.557016D-01 -0.200629D-01  0.000000D+00 -0.138555D-01 -0.247186D-01
     90  0.200629D-01  0.294077D-01  0.000000D+00  0.000000D+00  0.408923D-01
     91  0.000000D+00  0.000000D+00  0.960264D-02  0.000000D+00  0.000000D+00
     92  0.138555D-01  0.000000D+00  0.000000D+00  0.960264D-02  0.000000D+00
     93 -0.247186D-01 -0.408923D-01  0.000000D+00  0.000000D+00 -0.557016D-01
     94  0.825818D-02  0.126664D-02 -0.475434D-03  0.127631D-02  0.119700D-02
     95  0.240659D-01  0.721485D-02  0.251265D-02  0.519697D-02  0.797868D-02
     96  0.797876D-02  0.193285D-01  0.757875D-02 -0.430868D-02  0.240659D-01
               46            47            48            49            50
     46  0.100000D+01
     47  0.627472D-01  0.100000D+01
     48  0.233174D-02  0.608514D-01  0.100000D+01
     49  0.842340D-04  0.489155D-05  0.992102D-05  0.100000D+01
     50  0.817691D-04  0.645190D-05  0.135692D-04  0.000000D+00  0.100000D+01
     51  0.711605D-04  0.216923D-05 -0.125400D-05  0.000000D+00  0.000000D+00
     52 -0.667389D-04 -0.333033D-05 -0.700414D-05  0.000000D+00  0.000000D+00
     53  0.141312D-03  0.317090D-04  0.139505D-03  0.418191D+00  0.363502D+00
     54  0.956415D-04  0.366774D-04  0.175396D-03 -0.363502D+00 -0.180916D+00
     55  0.149718D-03  0.210091D-04  0.595601D-05  0.212233D+00  0.253964D+00
     56 -0.115379D-03 -0.238004D-04 -0.113816D-03  0.000000D+00  0.000000D+00
     57  0.121456D-02  0.545869D-03  0.125440D-02  0.846391D-01  0.110523D+00
     58  0.473674D-03  0.546692D-03  0.133395D-02 -0.110523D+00 -0.138570D+00
     59  0.122312D-02  0.317573D-03 -0.208757D-03  0.382034D-03  0.594126D-03
     60 -0.114411D-02 -0.485467D-03 -0.118456D-02  0.000000D+00  0.000000D+00
     61  0.726010D-02  0.125439D-02  0.545882D-03  0.416121D-01  0.490741D-01
     62  0.332620D-02  0.133393D-02  0.546703D-03 -0.490741D-01 -0.527411D-01
     63  0.474920D-02  0.208756D-03 -0.317581D-03 -0.287429D-01 -0.393103D-01
     64 -0.803411D-02 -0.118454D-02 -0.485478D-03  0.000000D+00  0.000000D+00
     65  0.361913D-02  0.139508D-03  0.317112D-04  0.862706D-01  0.551960D-01
     66  0.309700D-02  0.175399D-03  0.366798D-04 -0.551960D-01 -0.801020D-02
     67  0.135461D-02 -0.595576D-05 -0.210106D-04 -0.980127D-01 -0.747485D-01
     68 -0.373614D-02 -0.113819D-03 -0.238021D-04  0.000000D+00  0.000000D+00
     69  0.395410D-03  0.992079D-05  0.489166D-05  0.398147D+00  0.000000D+00
     70  0.421678D-03  0.135689D-04  0.645204D-05  0.000000D+00  0.237410D+00
     71  0.204412D-03  0.125396D-05 -0.216928D-05 -0.407575D+00  0.000000D+00
     72 -0.344168D-03 -0.700397D-05 -0.333041D-05  0.000000D+00  0.000000D+00
     73  0.939292D-04  0.331678D-03  0.520155D-02  0.333994D-02  0.419336D-02
     74  0.129514D-04  0.000000D+00  0.203514D-05  0.520724D+00 -0.425568D+00
     75  0.288510D-04  0.129510D-04  0.136813D-03  0.121262D+00  0.818767D-01
     76  0.559805D-03  0.129310D-02  0.747825D-02  0.632579D-02  0.913905D-02
     77  0.000000D+00  0.870469D-03  0.590432D-02 -0.913905D-02 -0.130801D-01
     78  0.647144D-03  0.108041D-02  0.434443D-03  0.172452D-02  0.278265D-02
     79 -0.498716D-03 -0.122395D-02 -0.830198D-02  0.000000D+00  0.000000D+00
     80  0.193168D-01  0.747834D-02  0.129314D-02  0.207463D-02  0.271691D-02
     81 -0.220453D-04  0.590436D-02  0.870486D-03 -0.271691D-02 -0.344846D-02
     82  0.871951D-02 -0.434448D-03 -0.108044D-02 -0.155926D-02 -0.225274D-02
     83 -0.240494D-01 -0.830209D-02 -0.122399D-02  0.000000D+00  0.000000D+00
     84  0.512940D-02  0.136811D-03  0.129514D-04  0.126733D-01  0.593732D-02
     85  0.136818D-03  0.203514D-05  0.000000D+00  0.116094D+00 -0.615787D-01
[...]
    21  C    0.000000   0.000000   0.000000   0.000000   0.000000   0.000000
    22  C    0.000000   0.000000   0.000000   0.000000   0.000000   0.000000
    23  C    0.000000   0.000000   0.000000   0.000000   0.000000   0.000000
    24  C    0.000000   0.000000   0.000000   0.000000   0.000000   0.000000
    25  H    0.000000   0.000000   0.000000   0.000000   0.000000   0.000000
    26  H    0.000000   0.000000   0.000000   0.000000   0.000000   0.000000
    27  H    0.000000   0.000000   0.000000   0.000000   0.000000   0.000000
    28  C    0.000000   0.000000   0.000000   0.000000   0.000000   0.000000
    29  C    0.000000   0.000000   0.000000   0.000000   0.000000   0.000000
    30  H    0.000000   0.000000   0.000000   0.000000   0.000000   0.000000
    31  H    0.000000   0.000000   0.000000   0.000000   0.000000   0.000000
    32  C    0.000000   0.000000   0.000000   0.000000   0.000000   0.000000
    33  C    0.000000   0.000000   0.000000   0.000000   0.000000   0.000000
    34  H    0.000000   0.000000   0.000000   0.000000   0.000000   0.000000
    35  H    0.000000   0.000000   0.000000   0.000000   0.000000   0.000000
    36  H    0.000000   0.000000   0.000000   0.000000   0.000000   0.000000
              7          8          9         10         11         12
     1  C    0.000000   0.000000   0.000000   0.000000   0.000000   0.000000
     2  C    0.000000   0.000000   0.000000   0.000000   0.000000   0.000000
     3  C    0.000000   0.000000   0.000000   0.000000   0.000000   0.000000
     4  C    0.000000   0.000000   0.000000   0.000000   0.000000   0.000000
     5  C    0.000000   0.000000   0.000000   0.000000   0.000000   0.000000
     6  C    0.000000   0.000000   0.000000   0.000000   0.000000   0.000000
     7  H    0.968537   0.000000   0.000000   0.000000   0.000000   0.000000
     8  H    0.000000   0.967952   0.000000   0.000000   0.000000   0.000000
     9  H    0.000000   0.000000   0.968538   0.000000   0.000000   0.000000
    10  C    0.000000   0.000000   0.000000   4.036940   0.000000   0.000000
    11  C    0.000000   0.000000   0.000000   0.000000   4.036940   0.000000
    12  H    0.000000   0.000000   0.000000   0.000000   0.000000   0.968540
    13  H    0.000000   0.000000   0.000000   0.000000   0.000000   0.000000
    14  C    0.000000   0.000000   0.000000   0.000000   0.000000   0.000000
    15  C    0.000000   0.000000   0.000000   0.000000   0.000000   0.000000
    16  H    0.000000   0.000000   0.000000   0.000000   0.000000   0.000000
    17  H    0.000000   0.000000   0.000000   0.000000   0.000000   0.000000
    18  H    0.000000   0.000000   0.000000   0.000000   0.000000   0.000000
    19  C    0.000000   0.000000   0.000000   0.000000   0.000000   0.000000
    20  C    0.000000   0.000000   0.000000   0.000000   0.000000   0.000000
    21  C    0.000000   0.000000   0.000000   0.000000   0.000000   0.000000
    22  C    0.000000   0.000000   0.000000   0.000000   0.000000   0.000000
    23  C    0.000000   0.000000   0.000000   0.000000   0.000000   0.000000
    24  C    0.000000   0.000000   0.000000   0.000000   0.000000   0.000000
    25  H    0.000000   0.000000   0.000000   0.000000   0.000000   0.000000
    26  H    0.000000   0.000000   0.000000   0.000000   0.000000   0.000000
    27  H    0.000000   0.000000   0.000000   0.000000   0.000000   0.000000
    28  C    0.000000   0.000000   0.000000   0.000000   0.000000   0.000000
    29  C    0.000000   0.000000   0.000000   0.000000   0.000000   0.000000
    30  H    0.000000   0.000000   0.000000   0.000000   0.000000   0.000000
    31  H    0.000000   0.000000   0.000000   0.000000   0.000000   0.000000
    32  C    0.000000   0.000000   0.000000   0.000000   0.000000   0.000000
    33  C    0.000000   0.000000   0.000000   0.000000   0.000000   0.000000
    34  H    0.000000   0.000000   0.000000   0.000000   0.000000   0.000000
    35  H    0.000000   0.000000   0.000000   0.000000   0.000000   0.000000
    36  H    0.000000   0.000000   0.000000   0.000000   0.000000   0.000000
             13         14         15         16         17         18
     1  C    0.000000   0.000000   0.000000   0.000000   0.000000   0.000000
     2  C    0.000000   0.000000   0.000000   0.000000   0.000000   0.000000
     3  C    0.000000   0.000000   0.000000   0.000000   0.000000   0.000000
     4  C    0.000000   0.000000   0.000000   0.000000   0.000000   0.000000
     5  C    0.000000   0.000000   0.000000   0.000000   0.000000   0.000000
     6  C    0.000000   0.000000   0.000000   0.000000   0.000000   0.000000
     7  H    0.000000   0.000000   0.000000   0.000000   0.000000   0.000000
     8  H    0.000000   0.000000   0.000000   0.000000   0.000000   0.000000
     9  H    0.000000   0.000000   0.000000   0.000000   0.000000   0.000000
    10  C    0.000000   0.000000   0.000000   0.000000   0.000000   0.000000
    11  C    0.000000   0.000000   0.000000   0.000000   0.000000   0.000000
    12  H    0.000000   0.000000   0.000000   0.000000   0.000000   0.000000
    13  H    0.967948   0.000000   0.000000   0.000000   0.000000   0.000000
    14  C    0.000000   4.034331   0.000000   0.000000   0.000000   0.000000
    15  C    0.000000   0.000000   4.034333   0.000000   0.000000   0.000000
    16  H    0.000000   0.000000   0.000000   0.968538   0.000000   0.000000
    17  H    0.000000   0.000000   0.000000   0.000000   0.967952   0.000000
    18  H    0.000000   0.000000   0.000000   0.000000   0.000000   0.967953
    19  C    0.000000   0.000000   0.000000   0.000000   0.000000   0.000000
    20  C    0.000000   0.000000   0.000000   0.000000   0.000000   0.000000
    21  C    0.000000   0.000000   0.000000   0.000000   0.000000   0.000000
    22  C    0.000000   0.000000   0.000000   0.000000   0.000000   0.000000
    23  C    0.000000   0.000000   0.000000   0.000000   0.000000   0.000000
    24  C    0.000000   0.000000   0.000000   0.000000   0.000000   0.000000
    25  H    0.000000   0.000000   0.000000   0.000000   0.000000   0.000000
    26  H    0.000000   0.000000   0.000000   0.000000   0.000000   0.000000
    27  H    0.000000   0.000000   0.000000   0.000000   0.000000   0.000000
    28  C    0.000000   0.000000   0.000000   0.000000   0.000000   0.000000
    29  C    0.000000   0.000000   0.000000   0.000000   0.000000   0.000000
    30  H    0.000000   0.000000   0.000000   0.000000   0.000000   0.000000
    31  H    0.000000   0.000000   0.000000   0.000000   0.000000   0.000000
    32  C    0.000000   0.000000   0.000000   0.000000   0.000000   0.000000
    33  C    0.000000   0.000000   0.000000   0.000000   0.000000   0.000000
    34  H    0.000000   0.000000   0.000000   0.000000   0.000000   0.000000
    35  H    0.000000   0.000000   0.000000   0.000000   0.000000   0.000000
    36  H    0.000000   0.000000   0.000000   0.000000   0.000000   0.000000
             19         20         21         22         23         24
     1  C    0.000000   0.000000   0.000000   0.000000   0.000000   0.000000
     2  C    0.000000   0.000000   0.000000   0.000000   0.000000   0.000000
     3  C    0.000000   0.000000   0.000000   0.000000   0.000000   0.000000
     4  C    0.000000   0.000000   0.000000   0.000000   0.000000   0.000000
     5  C    0.000000   0.000000   0.000000   0.000000   0.000000   0.000000
     6  C    0.000000   0.000000   0.000000   0.000000   0.000000   0.000000
     7  H    0.000000   0.000000   0.000000   0.000000   0.000000   0.000000
     8  H    0.000000   0.000000   0.000000   0.000000   0.000000   0.000000
     9  H    0.000000   0.000000   0.000000   0.000000   0.000000   0.000000
    10  C    0.000000   0.000000   0.000000   0.000000   0.000000   0.000000
    11  C    0.000000   0.000000   0.000000   0.000000   0.000000   0.000000
    12  H    0.000000   0.000000   0.000000   0.000000   0.000000   0.000000
    13  H    0.000000   0.000000   0.000000   0.000000   0.000000   0.000000
    14  C    0.000000   0.000000   0.000000   0.000000   0.000000   0.000000
    15  C    0.000000   0.000000   0.000000   0.000000   0.000000   0.000000
    16  H    0.000000   0.000000   0.000000   0.000000   0.000000   0.000000
    17  H    0.000000   0.000000   0.000000   0.000000   0.000000   0.000000
    18  H    0.000000   0.000000   0.000000   0.000000   0.000000   0.000000
    19  C    4.034331   0.000000   0.000000   0.000000   0.000000   0.000000
    20  C    0.000000   4.036941   0.000000   0.000000   0.000000   0.000000
    21  C    0.000000   0.000000   3.984476   0.000000   0.000000   0.000000
    22  C    0.000000   0.000000   0.000000   3.984476   0.000000   0.000000
    23  C    0.000000   0.000000   0.000000   0.000000   4.036939   0.000000
    24  C    0.000000   0.000000   0.000000   0.000000   0.000000   4.034335
    25  H    0.000000   0.000000   0.000000   0.000000   0.000000   0.000000
    26  H    0.000000   0.000000   0.000000   0.000000   0.000000   0.000000
    27  H    0.000000   0.000000   0.000000   0.000000   0.000000   0.000000
    28  C    0.000000   0.000000   0.000000   0.000000   0.000000   0.000000
    29  C    0.000000   0.000000   0.000000   0.000000   0.000000   0.000000
    30  H    0.000000   0.000000   0.000000   0.000000   0.000000   0.000000
    31  H    0.000000   0.000000   0.000000   0.000000   0.000000   0.000000
    32  C    0.000000   0.000000   0.000000   0.000000   0.000000   0.000000
    33  C    0.000000   0.000000   0.000000   0.000000   0.000000   0.000000
    34  H    0.000000   0.000000   0.000000   0.000000   0.000000   0.000000
    35  H    0.000000   0.000000   0.000000   0.000000   0.000000   0.000000
    36  H    0.000000   0.000000   0.000000   0.000000   0.000000   0.000000
             25         26         27         28         29         30
     1  C    0.000000   0.000000   0.000000   0.000000   0.000000   0.000000
     2  C    0.000000   0.000000   0.000000   0.000000   0.000000   0.000000
     3  C    0.000000   0.000000   0.000000   0.000000   0.000000   0.000000
     4  C    0.000000   0.000000   0.000000   0.000000   0.000000   0.000000
     5  C    0.000000   0.000000   0.000000   0.000000   0.000000   0.000000
     6  C    0.000000   0.000000   0.000000   0.000000   0.000000   0.000000
     7  H    0.000000   0.000000   0.000000   0.000000   0.000000   0.000000
     8  H    0.000000   0.000000   0.000000   0.000000   0.000000   0.000000
     9  H    0.000000   0.000000   0.000000   0.000000   0.000000   0.000000
    10  C    0.000000   0.000000   0.000000   0.000000   0.000000   0.000000
    11  C    0.000000   0.000000   0.000000   0.000000   0.000000   0.000000
    12  H    0.000000   0.000000   0.000000   0.000000   0.000000   0.000000
    13  H    0.000000   0.000000   0.000000   0.000000   0.000000   0.000000
    14  C    0.000000   0.000000   0.000000   0.000000   0.000000   0.000000
    15  C    0.000000   0.000000   0.000000   0.000000   0.000000   0.000000
    16  H    0.000000   0.000000   0.000000   0.000000   0.000000   0.000000
    17  H    0.000000   0.000000   0.000000   0.000000   0.000000   0.000000
    18  H    0.000000   0.000000   0.000000   0.000000   0.000000   0.000000
    19  C    0.000000   0.000000   0.000000   0.000000   0.000000   0.000000
    20  C    0.000000   0.000000   0.000000   0.000000   0.000000   0.000000
    21  C    0.000000   0.000000   0.000000   0.000000   0.000000   0.000000
    22  C    0.000000   0.000000   0.000000   0.000000   0.000000   0.000000
    23  C    0.000000   0.000000   0.000000   0.000000   0.000000   0.000000
    24  C    0.000000   0.000000   0.000000   0.000000   0.000000   0.000000
    25  H    0.968537   0.000000   0.000000   0.000000   0.000000   0.000000
    26  H    0.000000   0.967952   0.000000   0.000000   0.000000   0.000000
    27  H    0.000000   0.000000   0.968538   0.000000   0.000000   0.000000
    28  C    0.000000   0.000000   0.000000   4.036940   0.000000   0.000000
    29  C    0.000000   0.000000   0.000000   0.000000   4.036940   0.000000
    30  H    0.000000   0.000000   0.000000   0.000000   0.000000   0.968540
    31  H    0.000000   0.000000   0.000000   0.000000   0.000000   0.000000
    32  C    0.000000   0.000000   0.000000   0.000000   0.000000   0.000000
    33  C    0.000000   0.000000   0.000000   0.000000   0.000000   0.000000
    34  H    0.000000   0.000000   0.000000   0.000000   0.000000   0.000000
    35  H    0.000000   0.000000   0.000000   0.000000   0.000000   0.000000
    36  H    0.000000   0.000000   0.000000   0.000000   0.000000   0.000000
             31         32         33         34         35         36
     1  C    0.000000   0.000000   0.000000   0.000000   0.000000   0.000000
     2  C    0.000000   0.000000   0.000000   0.000000   0.000000   0.000000
     3  C    0.000000   0.000000   0.000000   0.000000   0.000000   0.000000
     4  C    0.000000   0.000000   0.000000   0.000000   0.000000   0.000000
     5  C    0.000000   0.000000   0.000000   0.000000   0.000000   0.000000
     6  C    0.000000   0.000000   0.000000   0.000000   0.000000   0.000000
     7  H    0.000000   0.000000   0.000000   0.000000   0.000000   0.000000
     8  H    0.000000   0.000000   0.000000   0.000000   0.000000   0.000000
     9  H    0.000000   0.000000   0.000000   0.000000   0.000000   0.000000
    10  C    0.000000   0.000000   0.000000   0.000000   0.000000   0.000000
    11  C    0.000000   0.000000   0.000000   0.000000   0.000000   0.000000
    12  H    0.000000   0.000000   0.000000   0.000000   0.000000   0.000000
    13  H    0.000000   0.000000   0.000000   0.000000   0.000000   0.000000
    14  C    0.000000   0.000000   0.000000   0.000000   0.000000   0.000000
    15  C    0.000000   0.000000   0.000000   0.000000   0.000000   0.000000
    16  H    0.000000   0.000000   0.000000   0.000000   0.000000   0.000000
    17  H    0.000000   0.000000   0.000000   0.000000   0.000000   0.000000
    18  H    0.000000   0.000000   0.000000   0.000000   0.000000   0.000000
    19  C    0.000000   0.000000   0.000000   0.000000   0.000000   0.000000
    20  C    0.000000   0.000000   0.000000   0.000000   0.000000   0.000000
    21  C    0.000000   0.000000   0.000000   0.000000   0.000000   0.000000
    22  C    0.000000   0.000000   0.000000   0.000000   0.000000   0.000000
    23  C    0.000000   0.000000   0.000000   0.000000   0.000000   0.000000
    24  C    0.000000   0.000000   0.000000   0.000000   0.000000   0.000000
    25  H    0.000000   0.000000   0.000000   0.000000   0.000000   0.000000
    26  H    0.000000   0.000000   0.000000   0.000000   0.000000   0.000000
    27  H    0.000000   0.000000   0.000000   0.000000   0.000000   0.000000
    28  C    0.000000   0.000000   0.000000   0.000000   0.000000   0.000000
    29  C    0.000000   0.000000   0.000000   0.000000   0.000000   0.000000
    30  H    0.000000   0.000000   0.000000   0.000000   0.000000   0.000000
    31  H    0.967948   0.000000   0.000000   0.000000   0.000000   0.000000
    32  C    0.000000   4.034331   0.000000   0.000000   0.000000   0.000000
    33  C    0.000000   0.000000   4.034333   0.000000   0.000000   0.000000
    34  H    0.000000   0.000000   0.000000   0.968538   0.000000   0.000000
    35  H    0.000000   0.000000   0.000000   0.000000   0.967952   0.000000
    36  H    0.000000   0.000000   0.000000   0.000000   0.000000   0.967953
 Mulliken atomic charges:
              1
     1  C   -0.034331
     2  C   -0.036941
     3  C    0.015524
     4  C    0.015524
     5  C   -0.036939
     6  C   -0.034335
     7  H    0.031463
     8  H    0.032048
     9  H    0.031462
    10  C   -0.036940
    11  C   -0.036940
    12  H    0.031460
    13  H    0.032052
    14  C   -0.034331
    15  C   -0.034333
    16  H    0.031462
    17  H    0.032048
    18  H    0.032047
    19  C   -0.034331
    20  C   -0.036941
    21  C    0.015524
    22  C    0.015524
    23  C   -0.036939
    24  C   -0.034335
    25  H    0.031463
    26  H    0.032048
    27  H    0.031462
    28  C   -0.036940
    29  C   -0.036940
    30  H    0.031460
    31  H    0.032052
    32  C   -0.034331
    33  C   -0.034333
    34  H    0.031462
    35  H    0.032048
    36  H    0.032047
 Sum of Mulliken charges=   0.00000
 Atomic charges with hydrogens summed into heavy atoms:
              1
     1  C   -0.002283
     2  C   -0.005479
     3  C    0.015524
     4  C    0.015524
     5  C   -0.005479
     6  C   -0.002284
     7  H    0.000000
     8  H    0.000000
     9  H    0.000000
    10  C   -0.005477
    11  C   -0.005478
    12  H    0.000000
    13  H    0.000000
    14  C   -0.002282
    15  C   -0.002286
    16  H    0.000000
    17  H    0.000000
    18  H    0.000000
    19  C   -0.002283
    20  C   -0.005479
    21  C    0.015524
    22  C    0.015524
    23  C   -0.005479
    24  C   -0.002284
    25  H    0.000000
    26  H    0.000000
    27  H    0.000000
    28  C   -0.005477
    29  C   -0.005478
    30  H    0.000000
    31  H    0.000000
    32  C   -0.002282
    33  C   -0.002286
    34  H    0.000000
    35  H    0.000000
    36  H    0.000000
 Sum of Mulliken charges=   0.00000
 Electronic spatial extent (au):  <R**2>=  5834.8555
 Charge=   -61.4383 electrons
 Dipole moment (field-independent basis, Debye):
    X=     0.0009    Y=     0.0003    Z=  -442.6507  Tot=   442.6507
 Quadrupole moment (field-independent basis, Debye-Ang):
   XX= -1240.4560   YY=  -646.3665   ZZ= -1523.0684
   XY=    -0.0017   XZ=     0.0013   YZ=     0.0005
 Traceless Quadrupole moment (field-independent basis, Debye-Ang):
   XX=  -103.8257   YY=   490.2638   ZZ=  -386.4381
   XY=    -0.0017   XZ=     0.0013   YZ=     0.0005
 Octapole moment (field-independent basis, Debye-Ang**2):
  XXX=     0.0094  YYY=     0.0027  ZZZ= -4861.8796  XYY=     0.0002
  XXY=    -0.0004  XXZ= -1860.6839  XZZ=     0.0042  YZZ=     0.0017
  YYZ=  -969.5498  XYZ=    -0.0025
 Hexadecapole moment (field-independent basis, Debye-Ang**3):
 XXXX=-10921.6040 YYYY= -3172.0650 ZZZZ=-17399.4511 XXXY=    -0.0170
 XXXZ=     0.0141 YYYX=    -0.0090 YYYZ=     0.0041 ZZZX=     0.0129
 ZZZY=     0.0052 XXYY= -2231.9499 XXZZ= -6307.1621 YYZZ= -3247.1347
 XXYZ=    -0.0007 YYXZ=     0.0003 ZZXY=    -0.0090
 N-N= 5.790812394153D+02 E-N= 0.000000000000D+00  KE=-1.332325225529D+03

 Test job not archived.
 1\1\GINC-RHUBARB\SP\RZINDO\STO-3G\C20H16\JK905\10-Oct-2007\0\\# ZINDO 
 PUNCH=MO IOP(3/33=1) NOSYMM\\04/10/07: Geometry from napthalene_b3lyp_
 of.log and reorientated to put long axi geometric centre on origin.\\0
 ,1\C,0,-2.4336,-0.70848,0.\C,0,-1.24478,-1.40258,0.\C,0,-0.0000018091,
 -0.716892,0.\C,0,0.0000023856,0.716891,0.\C,0,-1.24476,1.40257,0.\C,0,
 -2.4336,0.708481,0.\H,0,1.24204,-2.49027,0.\H,0,-3.37834,-1.24559,0.\H
 ,0,-1.24204,-2.49028,0.\C,0,1.24476,-1.40258,0.\C,0,1.24478,1.40258,0.
 \H,0,-1.24204,2.49027,0.\H,0,-3.37833,1.24559,0.\C,0,2.4336,0.708481,0
 .\C,0,2.43359,-0.70848,0.\H,0,1.24203,2.49028,0.\H,0,3.37835,1.24559,0
 .\H,0,3.37834,-1.24559,0.\C,0,-2.4336,-0.70848,3.\C,0,-1.24478,-1.4025
 8,3.\C,0,-0.0000018091,-0.716892,3.\C,0,0.0000023856,0.716891,3.\C,0,-
 1.24476,1.40257,3.\C,0,-2.4336,0.708481,3.\H,0,1.24204,-2.49027,3.\H,0
 ,-3.37834,-1.24559,3.\H,0,-1.24204,-2.49028,3.\C,0,1.24476,-1.40258,3.
 \C,0,1.24478,1.40258,3.\H,0,-1.24204,2.49027,3.\H,0,-3.37833,1.24559,3
 .\C,0,2.4336,0.708481,3.\C,0,2.43359,-0.70848,3.\H,0,1.24203,2.49028,3
 .\H,0,3.37835,1.24559,3.\H,0,3.37834,-1.24559,3.\\Version=x86_64-Linux
 -G03RevB.05\HF=-123.3613571\RMSD=2.577e-09\PG=CS [X(C20H16)]\\@


 WE DON'T KNOW ONE MILLIONTH OF ONE PERCENT ABOUT
 ANYTHING.
                                     T. A. EDISON.
 Job cpu time:  0 days  0 hours  0 minutes  3.9 seconds.
 File lengths (MBytes):  RWF=     36 Int=      0 D2E=      0 Chk=     11 Scr=      1
 Normal termination of Gaussian 03 at Wed Oct 10 10:14:44 2007.
