 Entering Gaussian System, Link 0=g03
 Input=4.5_pair.com
 Output=4.5_pair.log
 Initial command:
 /usr/local/g03/l1.exe /export/home/joe2/code/svnJ/J_from_g03/examples/naphthalene_zindo/Gau-12543.inp -scrdir=/export/home/joe2/code/svnJ/J_from_g03/examples/naphthalene_zindo/
 Entering Link 1 = /usr/local/g03/l1.exe PID=     12544.
  
 Copyright (c) 1988,1990,1992,1993,1995,1998,2003, Gaussian, Inc.
                  All Rights Reserved.
  
 This is the Gaussian(R) 03 program.  It is based on the
 the Gaussian(R) 98 system (copyright 1998, Gaussian, Inc.),
 the Gaussian(R) 94 system (copyright 1995, Gaussian, Inc.),
 the Gaussian 92(TM) system (copyright 1992, Gaussian, Inc.),
 the Gaussian 90(TM) system (copyright 1990, Gaussian, Inc.),
 the Gaussian 88(TM) system (copyright 1988, Gaussian, Inc.),
 the Gaussian 86(TM) system (copyright 1986, Carnegie Mellon
 University), and the Gaussian 82(TM) system (copyright 1983,
 Carnegie Mellon University). Gaussian is a federally registered
 trademark of Gaussian, Inc.
  
 This software contains proprietary and confidential information,
 including trade secrets, belonging to Gaussian, Inc.
  
 This software is provided under written license and may be
 used, copied, transmitted, or stored only in accord with that
 written license.
  
 The following legend is applicable only to US Government
 contracts under DFARS:
  
                    RESTRICTED RIGHTS LEGEND
  
 Use, duplication or disclosure by the US Government is subject
 to restrictions as set forth in subparagraph (c)(1)(ii) of the
 Rights in Technical Data and Computer Software clause at DFARS
 252.227-7013.
  
 Gaussian, Inc.
 Carnegie Office Park, Building 6, Pittsburgh, PA 15106 USA
  
 The following legend is applicable only to US Government
 contracts under FAR:
  
                    RESTRICTED RIGHTS LEGEND
  
 Use, reproduction and disclosure by the US Government is subject
 to restrictions as set forth in subparagraph (c) of the
 Commercial Computer Software - Restricted Rights clause at FAR
 52.227-19.
  
 Gaussian, Inc.
 Carnegie Office Park, Building 6, Pittsburgh, PA 15106 USA
  
  
 ---------------------------------------------------------------
 Warning -- This program may not be used in any manner that
 competes with the business of Gaussian, Inc. or will provide
 assistance to any competitor of Gaussian, Inc.  The licensee
 of this program is prohibited from giving any competitor of
 Gaussian, Inc. access to this program.  By using this program,
 the user acknowledges that Gaussian, Inc. is engaged in the
 business of creating and licensing software in the field of
 computational chemistry and represents and warrants to the
 licensee that it is not a competitor of Gaussian, Inc. and that
 it will not use this program in any manner prohibited above.
 ---------------------------------------------------------------
  

 Cite this work as:
 Gaussian 03, Revision B.05,
 M. J. Frisch, G. W. Trucks, H. B. Schlegel, G. E. Scuseria, 
 M. A. Robb, J. R. Cheeseman, J. A. Montgomery, Jr., T. Vreven, 
 K. N. Kudin, J. C. Burant, J. M. Millam, S. S. Iyengar, J. Tomasi, 
 V. Barone, B. Mennucci, M. Cossi, G. Scalmani, N. Rega, 
 G. A. Petersson, H. Nakatsuji, M. Hada, M. Ehara, K. Toyota, 
 R. Fukuda, J. Hasegawa, M. Ishida, T. Nakajima, Y. Honda, O. Kitao, 
 H. Nakai, M. Klene, X. Li, J. E. Knox, H. P. Hratchian, J. B. Cross, 
 C. Adamo, J. Jaramillo, R. Gomperts, R. E. Stratmann, O. Yazyev, 
 A. J. Austin, R. Cammi, C. Pomelli, J. W. Ochterski, P. Y. Ayala, 
 K. Morokuma, G. A. Voth, P. Salvador, J. J. Dannenberg, 
 V. G. Zakrzewski, S. Dapprich, A. D. Daniels, M. C. Strain, 
 O. Farkas, D. K. Malick, A. D. Rabuck, K. Raghavachari, 
 J. B. Foresman, J. V. Ortiz, Q. Cui, A. G. Baboul, S. Clifford, 
 J. Cioslowski, B. B. Stefanov, G. Liu, A. Liashenko, P. Piskorz, 
 I. Komaromi, R. L. Martin, D. J. Fox, T. Keith, M. A. Al-Laham, 
 C. Y. Peng, A. Nanayakkara, M. Challacombe, P. M. W. Gill, 
 B. Johnson, W. Chen, M. W. Wong, C. Gonzalez, and J. A. Pople, 
 Gaussian, Inc., Pittsburgh PA, 2003.
 
 *************************************************
 Gaussian 03:  x86_64-Linux-G03RevB.05  8-Nov-2003
                    10-Oct-2007 
 *************************************************
 -----------------------------------
 # zindo punch=mo iop(3/33=1) nosymm
 -----------------------------------
 1/30=1,38=1/1;
 2/15=1,17=6,18=5,40=1/2;
 3/5=2,12=3,16=1,25=1,33=1,41=400000/1,2,8,3;
 4/5=3,11=1,35=1/1;
 5/5=2,35=1,38=5/2;
 8/6=1/1;
 9/42=1,49=10/14;
 6/7=2,8=2,9=2,10=2/1;
 99/5=1,9=1,10=32/99;
 ----------------------------------------------------------------------
 04/10/07: Geometry from napthalene_b3lyp_of.log and reorientated to pu
 t long axi geometric centre on origin.
 ----------------------------------------------------------------------
 Symbolic Z-matrix:
 Charge =  0 Multiplicity = 1
 C                    -2.4336   -0.70848   0. 
 C                    -1.24478  -1.40258   0. 
 C                    0.        -0.71689   0. 
 C                     0.        0.71689   0. 
 C                    -1.24476   1.40257   0. 
 C                    -2.4336    0.70848   0. 
 H                     1.24204  -2.49027   0. 
 H                    -3.37834  -1.24559   0. 
 H                    -1.24204  -2.49028   0. 
 C                     1.24476  -1.40258   0. 
 C                     1.24478   1.40258   0. 
 H                    -1.24204   2.49027   0. 
 H                    -3.37833   1.24559   0. 
 C                     2.4336    0.70848   0. 
 C                     2.43359  -0.70848   0. 
 H                     1.24203   2.49028   0. 
 H                     3.37835   1.24559   0. 
 H                     3.37834  -1.24559   0. 
 C                    -2.4336   -0.70848   4.5 
 C                    -1.24478  -1.40258   4.5 
 C                    0.        -0.71689   4.5 
 C                     0.        0.71689   4.5 
 C                    -1.24476   1.40257   4.5 
 C                    -2.4336    0.70848   4.5 
 H                     1.24204  -2.49027   4.5 
 H                    -3.37834  -1.24559   4.5 
 H                    -1.24204  -2.49028   4.5 
 C                     1.24476  -1.40258   4.5 
 C                     1.24478   1.40258   4.5 
 H                    -1.24204   2.49027   4.5 
 H                    -3.37833   1.24559   4.5 
 C                     2.4336    0.70848   4.5 
 C                     2.43359  -0.70848   4.5 
 H                     1.24203   2.49028   4.5 
 H                     3.37835   1.24559   4.5 
 H                     3.37834  -1.24559   4.5 
 
                          Input orientation:                          
 ---------------------------------------------------------------------
 Center     Atomic     Atomic              Coordinates (Angstroms)
 Number     Number      Type              X           Y           Z
 ---------------------------------------------------------------------
    1          6             0       -2.433600   -0.708480    0.000000
    2          6             0       -1.244780   -1.402580    0.000000
    3          6             0       -0.000002   -0.716892    0.000000
    4          6             0        0.000002    0.716891    0.000000
    5          6             0       -1.244760    1.402570    0.000000
    6          6             0       -2.433600    0.708481    0.000000
    7          1             0        1.242040   -2.490270    0.000000
    8          1             0       -3.378340   -1.245590    0.000000
    9          1             0       -1.242040   -2.490280    0.000000
   10          6             0        1.244760   -1.402580    0.000000
   11          6             0        1.244780    1.402580    0.000000
   12          1             0       -1.242040    2.490270    0.000000
   13          1             0       -3.378330    1.245590    0.000000
   14          6             0        2.433600    0.708481    0.000000
   15          6             0        2.433590   -0.708480    0.000000
   16          1             0        1.242030    2.490280    0.000000
   17          1             0        3.378350    1.245590    0.000000
   18          1             0        3.378340   -1.245590    0.000000
   19          6             0       -2.433600   -0.708480    4.500000
   20          6             0       -1.244780   -1.402580    4.500000
   21          6             0       -0.000002   -0.716892    4.500000
   22          6             0        0.000002    0.716891    4.500000
   23          6             0       -1.244760    1.402570    4.500000
   24          6             0       -2.433600    0.708481    4.500000
   25          1             0        1.242040   -2.490270    4.500000
   26          1             0       -3.378340   -1.245590    4.500000
   27          1             0       -1.242040   -2.490280    4.500000
   28          6             0        1.244760   -1.402580    4.500000
   29          6             0        1.244780    1.402580    4.500000
   30          1             0       -1.242040    2.490270    4.500000
   31          1             0       -3.378330    1.245590    4.500000
   32          6             0        2.433600    0.708481    4.500000
   33          6             0        2.433590   -0.708480    4.500000
   34          1             0        1.242030    2.490280    4.500000
   35          1             0        3.378350    1.245590    4.500000
   36          1             0        3.378340   -1.245590    4.500000
 ---------------------------------------------------------------------
                    Distance matrix (angstroms):
                    1          2          3          4          5
     1  C    0.000000
     2  C    1.376615   0.000000
     3  C    2.433613   1.421141   0.000000
     4  C    2.820302   2.457975   1.433783   0.000000
     5  C    2.422782   2.805150   2.457955   1.421122   0.000000
     6  C    1.416961   2.422782   2.820299   2.433617   1.376626
     7  H    4.084741   2.714285   2.165072   3.439264   4.619348
     8  H    1.086748   2.139328   3.419458   3.906985   3.400723
     9  H    2.143508   1.087703   2.165078   3.439275   3.892851
    10  C    3.743275   2.489540   1.421126   2.457962   3.750543
    11  C    4.241115   3.750578   2.457975   1.421141   2.489540
    12  H    3.413476   3.892851   3.439265   2.165073   1.087703
    13  H    2.170462   3.400712   3.906973   3.419452   2.139337
    14  C    5.069262   4.241115   2.820302   2.433612   3.743273
    15  C    4.867190   3.743285   2.433606   2.820289   4.241084
    16  H    4.872609   4.619370   3.439272   2.165073   2.714266
    17  H    6.131652   5.327864   3.906993   3.419467   4.625774
    18  H    5.836706   4.625785   3.419461   3.906981   5.327833
    19  C    4.500000   4.705855   5.115904   5.310754   5.110760
    20  C    4.705855   4.500000   4.719072   5.127537   5.302723
    21  C    5.115904   4.719072   4.500000   4.722895   5.127528
    22  C    5.310754   5.127537   4.722895   4.500000   4.719067
    23  C    5.110760   5.302723   5.127528   4.719067   4.500000
    24  C    4.717815   5.110760   5.310752   5.115906   4.705858
    25  H    6.077426   5.255221   4.993750   5.663792   6.448905
    26  H    4.629365   4.982642   5.651786   5.959407   5.640471
    27  H    4.984438   4.629589   4.993752   5.663799   5.950150
    28  C    5.853384   5.142743   4.719068   5.127531   5.858035
    29  C    6.183612   5.858057   5.127538   4.719072   5.142743
    30  H    5.648169   5.950150   5.663793   4.993750   4.629589
    31  H    4.996089   5.640465   5.959399   5.651783   4.982646
    32  C    6.778452   6.183612   5.310754   5.115903   5.853383
    33  C    6.628691   5.853391   5.115901   5.310747   6.183590
    34  H    6.632671   6.448921   5.663797   4.993750   5.255211
    35  H    7.605732   6.973961   5.959412   5.651792   6.453510
    36  H    7.370016   6.453517   5.651789   5.959404   6.973938
                    6          7          8          9         10
     6  C    0.000000
     7  H    4.872611   0.000000
     8  H    2.170467   4.785096   0.000000
     9  H    3.413486   2.484080   2.472454   0.000000
    10  C    4.241098   1.087693   4.625765   2.714271   0.000000
    11  C    3.743294   3.892851   5.327855   4.619376   2.805160
    12  H    2.143499   5.565648   4.303537   4.980550   4.619357
    13  H    1.086739   5.941756   2.491180   4.303540   5.327829
    14  C    4.867200   3.413477   6.131643   4.872618   2.422792
    15  C    5.069252   2.143494   5.836696   4.084736   1.376623
    16  H    4.084735   4.980550   5.941763   5.565661   3.892861
    17  H    5.836716   4.303542   7.201308   5.941778   3.400737
    18  H    6.131643   2.472449   6.756680   4.785098   2.139348
    19  C    4.717815   6.077426   4.629365   4.984438   5.853384
    20  C    5.110760   5.255221   4.982642   4.629589   5.142743
    21  C    5.310752   4.993750   5.651786   4.993752   4.719068
    22  C    5.115906   5.663792   5.959407   5.663799   5.127531
    23  C    4.705858   6.448905   5.640471   5.950150   5.858035
    24  C    4.500000   6.632672   4.996091   5.648176   6.183600
    25  H    6.632672   4.500000   6.568648   5.140102   4.629587
    26  H    4.996091   6.568648   4.500000   5.134494   6.453503
    27  H    5.648176   5.140102   5.134494   4.500000   5.255213
    28  C    6.183600   4.629587   6.453503   5.255213   4.500000
    29  C    5.853397   5.950150   6.973955   6.448925   5.302728
    30  H    4.984434   7.157264   6.226590   6.712368   6.448911
    31  H    4.629363   7.453487   5.143537   6.226593   6.973935
    32  C    6.628698   5.648170   7.605724   6.632677   5.110765
    33  C    6.778445   4.984432   7.370008   6.077423   4.705857
    34  H    6.077422   6.712368   7.453492   7.157275   5.950157
    35  H    7.370024   6.226594   8.491692   7.453504   5.640480
    36  H    7.605724   5.134492   8.118049   6.568650   4.982651
                   11         12         13         14         15
    11  C    0.000000
    12  H    2.714285   0.000000
    13  H    4.625775   2.472441   0.000000
    14  C    1.376614   4.084740   5.836696   0.000000
    15  C    2.422776   4.872603   6.131623   1.416961   0.000000
    16  H    1.087703   2.484070   4.785079   2.143513   3.413485
    17  H    2.139338   4.785105   6.756680   1.086756   2.170475
    18  H    3.400718   5.941764   7.201289   2.170467   1.086757
    19  C    6.183612   5.648169   4.996089   6.778452   6.628691
    20  C    5.858057   5.950150   5.640465   6.183612   5.853391
    21  C    5.127538   5.663793   5.959399   5.310754   5.115901
    22  C    4.719072   4.993750   5.651783   5.115903   5.310747
    23  C    5.142743   4.629589   4.982646   5.853383   6.183590
    24  C    5.853397   4.984434   4.629363   6.628698   6.778445
    25  H    5.950150   7.157264   7.453487   5.648170   4.984432
    26  H    6.973955   6.226590   5.143537   7.605724   7.370008
    27  H    6.448925   6.712368   6.226593   6.632677   6.077423
    28  C    5.302728   6.448911   6.973935   5.110765   4.705857
    29  C    4.500000   5.255221   6.453510   4.705854   5.110758
    30  H    5.255221   4.500000   5.134488   6.077426   6.632666
    31  H    6.453510   5.134488   4.500000   7.370008   7.605709
    32  C    4.705854   6.077426   7.370008   4.500000   4.717815
    33  C    5.110758   6.632666   7.605709   4.717815   4.500000
    34  H    4.629589   5.140098   6.568636   4.984440   5.648175
    35  H    4.982647   6.568655   8.118049   4.629367   4.996095
    36  H    5.640468   7.453493   8.491676   4.996091   4.629367
                   16         17         18         19         20
    16  H    0.000000
    17  H    2.472472   0.000000
    18  H    4.303550   2.491180   0.000000
    19  C    6.632671   7.605732   7.370016   0.000000
    20  C    6.448921   6.973961   6.453517   1.376615   0.000000
    21  C    5.663797   5.959412   5.651789   2.433613   1.421141
    22  C    4.993750   5.651792   5.959404   2.820302   2.457975
    23  C    5.255211   6.453510   6.973938   2.422782   2.805150
    24  C    6.077422   7.370024   7.605724   1.416961   2.422782
    25  H    6.712368   6.226594   5.134492   4.084741   2.714285
    26  H    7.453492   8.491692   8.118049   1.086748   2.139328
    27  H    7.157275   7.453504   6.568650   2.143508   1.087703
    28  C    5.950157   5.640480   4.982651   3.743275   2.489540
    29  C    4.629589   4.982647   5.640468   4.241115   3.750578
    30  H    5.140098   6.568655   7.453493   3.413476   3.892851
    31  H    6.568636   8.118049   8.491676   2.170462   3.400712
    32  C    4.984440   4.629367   4.996091   5.069262   4.241115
    33  C    5.648175   4.996095   4.629367   4.867190   3.743285
    34  H    4.500000   5.134503   6.226600   4.872609   4.619370
    35  H    5.134503   4.500000   5.143537   6.131652   5.327864
    36  H    6.226600   5.143537   4.500000   5.836706   4.625785
                   21         22         23         24         25
    21  C    0.000000
    22  C    1.433783   0.000000
    23  C    2.457955   1.421122   0.000000
    24  C    2.820299   2.433617   1.376626   0.000000
    25  H    2.165072   3.439264   4.619348   4.872611   0.000000
    26  H    3.419458   3.906985   3.400723   2.170467   4.785096
    27  H    2.165078   3.439275   3.892851   3.413486   2.484080
    28  C    1.421126   2.457962   3.750543   4.241098   1.087693
    29  C    2.457975   1.421141   2.489540   3.743294   3.892851
    30  H    3.439265   2.165073   1.087703   2.143499   5.565648
    31  H    3.906973   3.419452   2.139337   1.086739   5.941756
    32  C    2.820302   2.433612   3.743273   4.867200   3.413477
    33  C    2.433606   2.820289   4.241084   5.069252   2.143494
    34  H    3.439272   2.165073   2.714266   4.084735   4.980550
    35  H    3.906993   3.419467   4.625774   5.836716   4.303542
    36  H    3.419461   3.906981   5.327833   6.131643   2.472449
                   26         27         28         29         30
    26  H    0.000000
    27  H    2.472454   0.000000
    28  C    4.625765   2.714271   0.000000
    29  C    5.327855   4.619376   2.805160   0.000000
    30  H    4.303537   4.980550   4.619357   2.714285   0.000000
    31  H    2.491180   4.303540   5.327829   4.625775   2.472441
    32  C    6.131643   4.872618   2.422792   1.376614   4.084740
    33  C    5.836696   4.084736   1.376623   2.422776   4.872603
    34  H    5.941763   5.565661   3.892861   1.087703   2.484070
    35  H    7.201308   5.941778   3.400737   2.139338   4.785105
    36  H    6.756680   4.785098   2.139348   3.400718   5.941764
                   31         32         33         34         35
    31  H    0.000000
    32  C    5.836696   0.000000
    33  C    6.131623   1.416961   0.000000
    34  H    4.785079   2.143513   3.413485   0.000000
    35  H    6.756680   1.086756   2.170475   2.472472   0.000000
    36  H    7.201289   2.170467   1.086757   4.303550   2.491180
                   36
    36  H    0.000000
 Symmetry turned off by external request.
 Stoichiometry    C20H16
 Framework group  CS[X(C20H16)]
 Deg. of freedom    51
 Full point group                 CS      NOp   2
 Rotational constants (GHZ):      0.4410042      0.3117984      0.2385676
 Standard basis: VSTO-6G (5D, 7F)
                         Coordinates in L301:                         
 ---------------------------------------------------------------------
 Center     Atomic     Atomic              Coordinates (Angstroms)
 Number     Number      Type              X           Y           Z
 ---------------------------------------------------------------------
    1          6             0       -2.433600   -0.708480    0.000000
    2          6             0       -1.244780   -1.402580    0.000000
    3          6             0       -0.000002   -0.716892    0.000000
    4          6             0        0.000002    0.716891    0.000000
    5          6             0       -1.244760    1.402570    0.000000
    6          6             0       -2.433600    0.708481    0.000000
    7          1             0        1.242040   -2.490270    0.000000
    8          1             0       -3.378340   -1.245590    0.000000
    9          1             0       -1.242040   -2.490280    0.000000
   10          6             0        1.244760   -1.402580    0.000000
   11          6             0        1.244780    1.402580    0.000000
   12          1             0       -1.242040    2.490270    0.000000
   13          1             0       -3.378330    1.245590    0.000000
   14          6             0        2.433600    0.708481    0.000000
   15          6             0        2.433590   -0.708480    0.000000
   16          1             0        1.242030    2.490280    0.000000
   17          1             0        3.378350    1.245590    0.000000
   18          1             0        3.378340   -1.245590    0.000000
   19          6             0       -2.433600   -0.708480    4.500000
   20          6             0       -1.244780   -1.402580    4.500000
   21          6             0       -0.000002   -0.716892    4.500000
   22          6             0        0.000002    0.716891    4.500000
   23          6             0       -1.244760    1.402570    4.500000
   24          6             0       -2.433600    0.708481    4.500000
   25          1             0        1.242040   -2.490270    4.500000
   26          1             0       -3.378340   -1.245590    4.500000
   27          1             0       -1.242040   -2.490280    4.500000
   28          6             0        1.244760   -1.402580    4.500000
   29          6             0        1.244780    1.402580    4.500000
   30          1             0       -1.242040    2.490270    4.500000
   31          1             0       -3.378330    1.245590    4.500000
   32          6             0        2.433600    0.708481    4.500000
   33          6             0        2.433590   -0.708480    4.500000
   34          1             0        1.242030    2.490280    4.500000
   35          1             0        3.378350    1.245590    4.500000
   36          1             0        3.378340   -1.245590    4.500000
 ---------------------------------------------------------------------
 LdAtmC:  AtmChg=     4.000000     4.000000     4.000000     4.000000     4.000000
 LdAtmC:  AtmChg=     4.000000     1.000000     1.000000     1.000000     4.000000
 LdAtmC:  AtmChg=     4.000000     1.000000     1.000000     4.000000     4.000000
 LdAtmC:  AtmChg=     1.000000     1.000000     1.000000     4.000000     4.000000
 LdAtmC:  AtmChg=     4.000000     4.000000     4.000000     4.000000     1.000000
 LdAtmC:  AtmChg=     1.000000     1.000000     4.000000     4.000000     1.000000
 LdAtmC:  AtmChg=     1.000000     4.000000     4.000000     1.000000     1.000000
 LdAtmC:  AtmChg=     1.000000
 AtZEff=  -3.9000000  -3.9000000  -3.9000000  -3.9000000  -3.9000000  -3.9000000  -1.0000000  -1.0000000  -1.0000000  -3.9000000
 AtZEff=  -3.9000000  -1.0000000  -1.0000000  -3.9000000  -3.9000000  -1.0000000  -1.0000000  -1.0000000  -3.9000000  -3.9000000
 AtZEff=  -3.9000000  -3.9000000  -3.9000000  -3.9000000  -1.0000000  -1.0000000  -1.0000000  -3.9000000  -3.9000000  -1.0000000
 AtZEff=  -1.0000000  -3.9000000  -3.9000000  -1.0000000  -1.0000000  -1.0000000
 Integral buffers will be    131072 words long.
 Regular integral format.
 Two-electron integral symmetry is turned off.
    96 basis functions,   576 primitive gaussians,    96 cartesian basis functions
    48 alpha electrons       48 beta electrons
       nuclear repulsion energy       677.9784335131 Hartrees.
 Do NDO integrals.
 NPDir=0 NMtPBC=     1 NCelOv=     1 NCel=       1 NClECP=     1 NCelD=      1
         NCelK=      1 NCelE2=     1 NClLst=     1 CellRange=     0.0.
 One-electron integrals computed using PRISM.
 Entering OneElI...
 Calculate overlap and kinetic energy integrals
    NBasis =  96  MinDer = 0  MaxDer = 0
 Requested accuracy = 0.1000D-12
 PrsmSu:  NPrtUS=   1 ThrOK=F
 PRISM was handed     5680102 working-precision words and  1596 shell-pairs
 *** Overlap *** 
                1             2             3             4             5
      1  0.100000D+01
      2  0.000000D+00  0.100000D+01
      3  0.000000D+00  0.000000D+00  0.100000D+01
      4  0.000000D+00  0.000000D+00  0.000000D+00  0.100000D+01
      5  0.418191D+00  0.363502D+00 -0.212233D+00  0.000000D+00  0.100000D+01
      6 -0.363502D+00 -0.180916D+00  0.253964D+00  0.000000D+00  0.000000D+00
      7  0.212233D+00  0.253964D+00  0.105782D+00  0.000000D+00  0.000000D+00
      8  0.000000D+00  0.000000D+00  0.000000D+00  0.254061D+00  0.000000D+00
      9  0.846391D-01  0.110523D+00 -0.382034D-03  0.000000D+00  0.396101D+00
     10 -0.110523D+00 -0.138570D+00  0.594126D-03  0.000000D+00 -0.355765D+00
     11  0.382034D-03  0.594126D-03  0.333092D-01  0.000000D+00 -0.195974D+00
     12  0.000000D+00  0.000000D+00  0.000000D+00  0.333113D-01  0.000000D+00
     13  0.416121D-01  0.490741D-01  0.287429D-01  0.000000D+00  0.810676D-01
     14 -0.490741D-01 -0.527411D-01 -0.393103D-01  0.000000D+00 -0.537875D-01
     15 -0.287429D-01 -0.393103D-01 -0.864900D-02  0.000000D+00 -0.915831D-01
     16  0.000000D+00  0.000000D+00  0.000000D+00  0.143752D-01  0.000000D+00
     17  0.862706D-01  0.551960D-01  0.980127D-01  0.000000D+00  0.428279D-01
     18 -0.551960D-01 -0.801020D-02 -0.747485D-01  0.000000D+00  0.000000D+00
     19 -0.980127D-01 -0.747485D-01 -0.986481D-01  0.000000D+00 -0.584429D-01
     20  0.000000D+00  0.000000D+00  0.000000D+00  0.340845D-01  0.000000D+00
     21  0.398147D+00  0.000000D+00  0.407575D+00  0.000000D+00  0.862707D-01
     22  0.000000D+00  0.237410D+00  0.000000D+00  0.000000D+00  0.551950D-01
     23 -0.407575D+00  0.000000D+00 -0.331866D+00  0.000000D+00 -0.980133D-01
     24  0.000000D+00  0.000000D+00  0.000000D+00  0.237410D+00  0.000000D+00
     25  0.333994D-02  0.419336D-02 -0.203276D-02  0.000000D+00  0.460693D-01
     26  0.520724D+00 -0.425568D+00 -0.241947D+00  0.000000D+00  0.122081D+00
     27  0.121262D+00  0.818767D-01 -0.122434D+00  0.000000D+00  0.520189D+00
     28  0.632579D-02  0.913905D-02 -0.172452D-02  0.000000D+00  0.766371D-01
     29 -0.913905D-02 -0.130801D-01  0.278265D-02  0.000000D+00 -0.100826D+00
     30  0.172452D-02  0.278265D-02  0.114141D-02  0.000000D+00  0.000000D+00
     31  0.000000D+00  0.000000D+00  0.000000D+00  0.166649D-02  0.000000D+00
     32  0.207463D-02  0.271691D-02  0.155926D-02  0.000000D+00  0.622624D-02
     33 -0.271691D-02 -0.344846D-02 -0.225274D-02  0.000000D+00 -0.607896D-02
     34 -0.155926D-02 -0.225274D-02 -0.816083D-03  0.000000D+00 -0.684958D-02
     35  0.000000D+00  0.000000D+00  0.000000D+00  0.476789D-03  0.000000D+00
     36  0.126733D-01  0.593732D-02  0.159388D-01  0.000000D+00  0.493725D-02
     37  0.116094D+00 -0.615787D-01  0.127369D+00  0.000000D+00  0.129872D-01
     38  0.279191D-03  0.415846D-03  0.121063D-03  0.000000D+00  0.207463D-02
     39 -0.415846D-03 -0.620709D-03 -0.195609D-03  0.000000D+00 -0.271691D-02
     40 -0.121063D-03 -0.195609D-03 -0.574568D-05  0.000000D+00 -0.155926D-02
     41  0.000000D+00  0.000000D+00  0.000000D+00  0.512010D-04  0.000000D+00
     42  0.463427D-03  0.715545D-03  0.000000D+00  0.000000D+00  0.632565D-02
     43 -0.715545D-03 -0.111338D-02  0.000000D+00  0.000000D+00 -0.913886D-02
     44  0.000000D+00  0.000000D+00  0.898024D-04  0.000000D+00 -0.172448D-02
     45  0.000000D+00  0.000000D+00  0.000000D+00  0.898024D-04  0.000000D+00
     46  0.615270D-03  0.675946D-03  0.588250D-03  0.000000D+00  0.107651D-02
     47  0.303512D-04  0.440305D-04  0.148037D-04  0.000000D+00  0.216579D-03
     48  0.635625D-04  0.960250D-04 -0.887414D-05  0.000000D+00  0.106156D-02
     49  0.113098D-02  0.000000D+00  0.000000D+00  0.172610D-02  0.688991D-03
     50  0.000000D+00  0.242216D-03  0.000000D+00  0.000000D+00  0.267515D-03
     51  0.000000D+00  0.000000D+00  0.242216D-03  0.000000D+00 -0.156190D-03
     52 -0.172610D-02  0.000000D+00  0.000000D+00 -0.264794D-02 -0.101261D-02
     53  0.688991D-03  0.267515D-03 -0.156190D-03  0.101261D-02  0.113098D-02
     54 -0.267515D-03  0.260347D-04  0.662541D-04 -0.429540D-03  0.000000D+00
     55  0.156190D-03  0.662541D-04  0.100829D-03  0.250790D-03  0.000000D+00
     56 -0.101261D-02 -0.429540D-03  0.250790D-03 -0.148641D-02 -0.172610D-02
     57  0.247980D-03  0.183165D-03  0.000000D+00  0.338693D-03  0.667145D-03
     58 -0.183165D-03 -0.101730D-03  0.000000D+00 -0.271139D-03 -0.270576D-03
     59  0.000000D+00  0.000000D+00  0.449003D-04  0.000000D+00 -0.149047D-03
     60 -0.338693D-03 -0.271139D-03  0.000000D+00 -0.456465D-03 -0.978158D-03
     61  0.150169D-03  0.107196D-03  0.627851D-04  0.198217D-03  0.240733D-03
     62 -0.107196D-03 -0.568512D-04 -0.483982D-04 -0.152797D-03 -0.907644D-04
     63 -0.627851D-04 -0.483982D-04 -0.256574D-05 -0.894936D-04 -0.154543D-03
     64 -0.198217D-03 -0.152797D-03 -0.894936D-04 -0.256757D-03 -0.328121D-03
     65  0.251250D-03  0.907404D-04  0.161130D-03  0.343471D-03  0.153337D-03
     66 -0.907404D-04  0.100361D-04 -0.630773D-04 -0.134458D-03  0.000000D+00
     67 -0.161130D-03 -0.630773D-04 -0.664496D-04 -0.238760D-03 -0.126345D-03
     68 -0.343471D-03 -0.134458D-03 -0.238760D-03 -0.463393D-03 -0.202682D-03
     69  0.669194D-03  0.000000D+00  0.309019D-03  0.981386D-03  0.251250D-03
     70  0.000000D+00  0.135062D-03  0.000000D+00  0.000000D+00  0.907389D-04
     71 -0.309019D-03  0.000000D+00 -0.207998D-04 -0.494988D-03 -0.161131D-03
     72 -0.981386D-03  0.000000D+00 -0.494988D-03 -0.143693D-02 -0.343471D-03
     73  0.348244D-04  0.321882D-04 -0.156034D-04  0.394072D-04  0.256696D-03
     74  0.105330D-02 -0.309121D-03 -0.175744D-03  0.147241D-02  0.480224D-03
     75  0.478273D-03  0.167442D-03 -0.250385D-03  0.632356D-03  0.105279D-02
     76  0.352149D-04  0.346140D-04 -0.653160D-05  0.423458D-04  0.231566D-03
     77 -0.346140D-04 -0.311785D-04  0.686552D-05 -0.445106D-04 -0.174148D-03
     78  0.653160D-05  0.686552D-05  0.390953D-05  0.839908D-05  0.000000D+00
     79 -0.423458D-04 -0.445106D-04  0.839908D-05 -0.492480D-04 -0.314783D-03
     80  0.140217D-04  0.130355D-04  0.748123D-05  0.159472D-04  0.347660D-04
     81 -0.130355D-04 -0.109977D-04 -0.739511D-05 -0.157636D-04 -0.231103D-04
     82 -0.748123D-05 -0.739511D-05 -0.235637D-05 -0.904692D-05 -0.260399D-04
     83 -0.159472D-04 -0.157636D-04 -0.904692D-05 -0.173969D-04 -0.417729D-04
     84  0.100839D-03  0.320625D-04  0.860719D-04  0.121086D-03  0.479522D-04
     85  0.465806D-03 -0.129068D-03  0.266963D-03  0.614786D-03  0.102740D-03
     86  0.247711D-05  0.275725D-05  0.000000D+00  0.254923D-05  0.140217D-04
     87 -0.275725D-05 -0.295081D-05  0.000000D+00 -0.298655D-05 -0.130355D-04
     88  0.000000D+00  0.000000D+00  0.000000D+00  0.000000D+00 -0.748122D-05
     89 -0.254923D-05 -0.298655D-05  0.000000D+00 -0.248179D-05 -0.159472D-04
     90  0.386841D-05  0.441598D-05  0.000000D+00  0.408283D-05  0.352143D-04
     91 -0.441598D-05 -0.486259D-05  0.000000D+00 -0.491815D-05 -0.346135D-04
     92  0.000000D+00  0.000000D+00  0.000000D+00  0.000000D+00 -0.653148D-05
     93 -0.408283D-05 -0.491815D-05  0.000000D+00 -0.409025D-05 -0.423450D-04
     94  0.823449D-05  0.705455D-05  0.613931D-05  0.863675D-05  0.133832D-04
     95  0.000000D+00  0.000000D+00  0.000000D+00  0.000000D+00  0.326536D-05
     96  0.107375D-05  0.131186D-05  0.000000D+00  0.101573D-05  0.132230D-04
                6             7             8             9            10
      6  0.100000D+01
      7  0.000000D+00  0.100000D+01
      8  0.000000D+00  0.000000D+00  0.100000D+01
      9  0.355765D+00  0.195974D+00  0.000000D+00  0.100000D+01
     10 -0.199856D+00 -0.239946D+00  0.000000D+00  0.000000D+00  0.100000D+01
     11 -0.239946D+00  0.103561D+00  0.000000D+00  0.000000D+00  0.000000D+00
     12  0.000000D+00  0.000000D+00  0.235736D+00  0.000000D+00  0.000000D+00
     13  0.537875D-01  0.915831D-01  0.000000D+00  0.389948D+00  0.117580D-05
     14 -0.107884D-01 -0.722277D-01  0.000000D+00 -0.117580D-05  0.230728D+00
     15 -0.722277D-01 -0.913494D-01  0.000000D+00 -0.401898D+00 -0.164752D-05
     16  0.000000D+00  0.000000D+00  0.316316D-01  0.000000D+00  0.000000D+00
     17  0.000000D+00  0.584429D-01  0.000000D+00  0.810704D-01 -0.537887D-01
     18  0.148673D-01  0.000000D+00  0.000000D+00  0.537887D-01 -0.107874D-01
     19  0.000000D+00 -0.777017D-01  0.000000D+00 -0.915865D-01  0.722294D-01
     20  0.000000D+00  0.000000D+00  0.148673D-01  0.000000D+00  0.000000D+00
     21 -0.551950D-01  0.980133D-01  0.000000D+00  0.416123D-01 -0.490743D-01
     22 -0.800879D-02  0.747477D-01  0.000000D+00  0.490743D-01 -0.527412D-01
     23  0.747477D-01 -0.986495D-01  0.000000D+00 -0.287431D-01  0.393105D-01
     24  0.000000D+00  0.000000D+00  0.340845D-01  0.000000D+00  0.000000D+00
     25  0.541424D-01 -0.236809D-01  0.000000D+00  0.117112D+00  0.818180D-01
     26 -0.147808D+00  0.108759D-01  0.000000D+00  0.125287D-01 -0.166183D-01
     27  0.123245D-02 -0.489247D+00  0.000000D+00  0.117111D+00 -0.818167D-01
     28  0.100826D+00  0.000000D+00  0.000000D+00  0.396108D+00  0.355768D+00
     29 -0.127715D+00  0.000000D+00  0.000000D+00 -0.355768D+00 -0.199851D+00
     30  0.000000D+00  0.295730D-01  0.000000D+00  0.195978D+00  0.239950D+00
     31  0.000000D+00  0.000000D+00  0.295730D-01  0.000000D+00  0.000000D+00
     32  0.607896D-02  0.684958D-02  0.000000D+00  0.810675D-01  0.537874D-01
     33 -0.499051D-02 -0.746761D-02  0.000000D+00 -0.537874D-01 -0.107883D-01
     34 -0.746761D-02 -0.677733D-02  0.000000D+00 -0.915831D-01 -0.722276D-01
     35  0.000000D+00  0.000000D+00  0.163695D-02  0.000000D+00  0.000000D+00
     36  0.479566D-05  0.681342D-02  0.000000D+00  0.120610D-01 -0.585455D-02
     37 -0.109270D-01  0.135626D-01  0.000000D+00  0.479855D-02 -0.573066D-02
     38  0.271691D-02  0.155926D-02  0.000000D+00  0.416121D-01  0.490740D-01
     39 -0.344846D-02 -0.225274D-02  0.000000D+00 -0.490740D-01 -0.527410D-01
     40 -0.225274D-02 -0.816084D-03  0.000000D+00 -0.287429D-01 -0.393103D-01
     41  0.000000D+00  0.000000D+00  0.476788D-03  0.000000D+00  0.000000D+00
     42  0.913886D-02  0.172448D-02  0.000000D+00  0.846401D-01  0.110524D+00
     43 -0.130798D-01 -0.278258D-02  0.000000D+00 -0.110524D+00 -0.138571D+00
     44 -0.278258D-02  0.114138D-02  0.000000D+00 -0.382039D-03 -0.594133D-03
     45  0.000000D+00  0.000000D+00  0.166645D-02  0.000000D+00  0.000000D+00
     46  0.832971D-03  0.130394D-02  0.000000D+00  0.120608D-01  0.585443D-02
     47  0.279621D-03  0.160170D-03  0.000000D+00  0.479835D-02  0.573044D-02
     48  0.152544D-02  0.518003D-04  0.000000D+00  0.125287D-01  0.166182D-01
     49 -0.267515D-03  0.156190D-03  0.101261D-02  0.247980D-03 -0.183165D-03
     50  0.260347D-04  0.662541D-04  0.429540D-03  0.183165D-03 -0.101730D-03
     51  0.662541D-04  0.100829D-03 -0.250790D-03  0.000000D+00  0.000000D+00
     52  0.429540D-03 -0.250790D-03 -0.148641D-02 -0.338693D-03  0.271139D-03
     53  0.000000D+00  0.000000D+00  0.172610D-02  0.667145D-03 -0.270576D-03
     54  0.242216D-03  0.000000D+00  0.000000D+00  0.270576D-03  0.147444D-04
     55  0.000000D+00  0.242216D-03  0.000000D+00  0.149047D-03 -0.660240D-04
     56  0.000000D+00  0.000000D+00 -0.264794D-02 -0.978158D-03  0.433299D-03
     57  0.270576D-03  0.149047D-03  0.978158D-03  0.113098D-02  0.000000D+00
     58  0.147444D-04 -0.660240D-04 -0.433299D-03  0.000000D+00  0.242216D-03
     59 -0.660240D-04  0.982330D-04 -0.238683D-03  0.000000D+00  0.000000D+00
     60 -0.433299D-03 -0.238683D-03 -0.143182D-02 -0.172610D-02  0.000000D+00
     61  0.907644D-04  0.154543D-03  0.328121D-03  0.660951D-03  0.000000D+00
     62  0.636987D-05 -0.631385D-04 -0.134054D-03  0.000000D+00  0.133214D-03
     63 -0.631385D-04 -0.640533D-04 -0.228251D-03 -0.308552D-03  0.000000D+00
     64 -0.134054D-03 -0.228251D-03 -0.441165D-03 -0.968405D-03  0.000000D+00
     65  0.000000D+00  0.126345D-03  0.202682D-03  0.240739D-03 -0.907650D-04
     66  0.263830D-04  0.000000D+00  0.000000D+00  0.907650D-04  0.637145D-05
     67  0.000000D+00 -0.860541D-04 -0.180371D-03 -0.154546D-03  0.631388D-04
     68  0.000000D+00 -0.180371D-03 -0.262967D-03 -0.328130D-03  0.134055D-03
     69 -0.907389D-04  0.161131D-03  0.343471D-03  0.150170D-03 -0.107196D-03
     70  0.100373D-04  0.630766D-04  0.134456D-03  0.107196D-03 -0.568512D-04
     71  0.630766D-04 -0.664508D-04 -0.238762D-03 -0.627855D-04  0.483984D-04
     72  0.134456D-03 -0.238762D-03 -0.463393D-03 -0.198218D-03  0.152797D-03
     73  0.180161D-03 -0.787990D-04  0.326008D-03  0.468284D-03  0.170650D-03
     74 -0.301120D-03  0.221568D-04  0.635108D-03  0.999579D-04 -0.900645D-04
     75  0.000000D+00 -0.355711D-03  0.147164D-02  0.468281D-03 -0.170648D-03
     76  0.174148D-03  0.000000D+00  0.314783D-03  0.667152D-03  0.270575D-03
     77 -0.100249D-03  0.000000D+00 -0.256445D-03 -0.270575D-03  0.147476D-04
     78  0.000000D+00  0.416239D-04  0.000000D+00  0.149049D-03  0.660239D-04
     79 -0.256445D-03  0.000000D+00 -0.421916D-03 -0.978169D-03 -0.433299D-03
     80  0.231103D-04  0.260399D-04  0.417729D-04  0.240733D-03  0.907643D-04
     81 -0.112946D-04 -0.185090D-04 -0.296918D-04 -0.907643D-04  0.636991D-05
     82 -0.185090D-04 -0.157233D-04 -0.334558D-04 -0.154543D-03 -0.631385D-04
     83 -0.296918D-04 -0.334558D-04 -0.485374D-04 -0.328121D-03 -0.134054D-03
     84  0.000000D+00  0.477686D-04  0.552189D-04  0.970868D-04 -0.321069D-04
     85 -0.585550D-04  0.726787D-04  0.123502D-03  0.468566D-04 -0.404563D-04
     86  0.130355D-04  0.748122D-05  0.159472D-04  0.150169D-03  0.107196D-03
     87 -0.109977D-04 -0.739511D-05 -0.157636D-04 -0.107196D-03 -0.568511D-04
     88 -0.739511D-05 -0.235637D-05 -0.904691D-05 -0.627852D-04 -0.483982D-04
     89 -0.157636D-04 -0.904691D-05 -0.173969D-04 -0.198217D-03 -0.152796D-03
     90  0.346135D-04  0.653148D-05  0.423450D-04  0.247982D-03  0.183166D-03
     91 -0.311781D-04 -0.686540D-05 -0.445099D-04 -0.183166D-03 -0.101730D-03
     92 -0.686540D-05  0.390946D-05 -0.839891D-05  0.000000D+00  0.000000D+00
     93 -0.445099D-04 -0.839891D-05 -0.492470D-04 -0.338696D-03 -0.271141D-03
     94  0.795487D-05  0.124526D-04  0.143947D-04  0.970858D-04  0.321064D-04
     95  0.335638D-05  0.192256D-05  0.326698D-05  0.468550D-04  0.404552D-04
     96  0.146023D-04  0.000000D+00  0.142134D-04  0.999574D-04  0.900641D-04
               11            12            13            14            15
     11  0.100000D+01
     12  0.000000D+00  0.100000D+01
     13  0.401898D+00  0.000000D+00  0.100000D+01
     14 -0.164752D-05  0.000000D+00  0.000000D+00  0.100000D+01
     15 -0.332405D+00  0.000000D+00  0.000000D+00  0.000000D+00  0.100000D+01
     16  0.000000D+00  0.230728D+00  0.000000D+00  0.000000D+00  0.000000D+00
     17  0.915865D-01  0.000000D+00  0.396110D+00 -0.355770D+00  0.195976D+00
     18  0.722294D-01  0.000000D+00  0.355770D+00 -0.199853D+00  0.239949D+00
     19 -0.913529D-01  0.000000D+00 -0.195976D+00  0.239949D+00  0.103567D+00
     20  0.000000D+00  0.316329D-01  0.000000D+00  0.000000D+00  0.000000D+00
     21  0.287431D-01  0.000000D+00  0.846385D-01 -0.110522D+00 -0.381940D-03
     22  0.393105D-01  0.000000D+00  0.110522D+00 -0.138569D+00 -0.593980D-03
     23 -0.864913D-02  0.000000D+00  0.381940D-03 -0.593980D-03  0.333089D-01
     24  0.000000D+00  0.143753D-01  0.000000D+00  0.000000D+00  0.000000D+00
     25 -0.116819D+00  0.000000D+00  0.120610D-01  0.585456D-02 -0.151175D-01
     26 -0.260071D-02  0.000000D+00  0.479844D-02 -0.573053D-02 -0.332887D-02
     27 -0.116818D+00  0.000000D+00  0.120608D-01 -0.585444D-02 -0.151172D-01
     28 -0.195978D+00  0.000000D+00  0.810694D-01  0.537878D-01 -0.915855D-01
     29  0.239950D+00  0.000000D+00 -0.537878D-01 -0.107871D-01  0.722284D-01
     30  0.103563D+00  0.000000D+00  0.915855D-01  0.722284D-01 -0.913522D-01
     31  0.000000D+00  0.235741D+00  0.000000D+00  0.000000D+00  0.000000D+00
     32  0.915831D-01  0.000000D+00  0.396101D+00  0.355765D+00  0.195974D+00
     33 -0.722276D-01  0.000000D+00 -0.355765D+00 -0.199855D+00 -0.239946D+00
     34 -0.913494D-01  0.000000D+00 -0.195974D+00 -0.239946D+00  0.103561D+00
     35  0.000000D+00  0.316315D-01  0.000000D+00  0.000000D+00  0.000000D+00
     36  0.151175D-01  0.000000D+00  0.117112D+00 -0.818178D-01  0.116819D+00
     37  0.332896D-02  0.000000D+00  0.125289D-01 -0.166185D-01  0.260075D-02
     38  0.287429D-01  0.000000D+00  0.846392D-01  0.110523D+00 -0.381944D-03
     39 -0.393103D-01  0.000000D+00 -0.110523D+00 -0.138570D+00  0.593985D-03
     40 -0.864905D-02  0.000000D+00  0.381944D-03  0.593985D-03  0.333093D-01
     41  0.000000D+00  0.143752D-01  0.000000D+00  0.000000D+00  0.000000D+00
     42  0.382039D-03  0.000000D+00  0.416131D-01  0.490752D-01 -0.287437D-01
     43 -0.594133D-03  0.000000D+00 -0.490752D-01 -0.527420D-01  0.393113D-01
     44  0.333097D-01  0.000000D+00  0.287437D-01  0.393113D-01 -0.864931D-02
     45  0.000000D+00  0.333117D-01  0.000000D+00  0.000000D+00  0.000000D+00
     46  0.151173D-01  0.000000D+00  0.117112D+00  0.818169D-01  0.116820D+00
     47  0.332881D-02  0.000000D+00  0.125285D-01  0.166180D-01  0.260066D-02
     48 -0.260069D-02  0.000000D+00  0.479848D-02  0.573058D-02 -0.332890D-02
     49  0.000000D+00  0.338693D-03  0.150169D-03 -0.107196D-03 -0.627851D-04
     50  0.000000D+00  0.271139D-03  0.107196D-03 -0.568512D-04 -0.483982D-04
     51  0.449003D-04  0.000000D+00  0.627851D-04 -0.483982D-04 -0.256574D-05
     52  0.000000D+00 -0.456465D-03 -0.198217D-03  0.152797D-03  0.894936D-04
     53 -0.149047D-03  0.978158D-03  0.240733D-03 -0.907644D-04 -0.154543D-03
     54 -0.660240D-04  0.433299D-03  0.907644D-04  0.636987D-05 -0.631385D-04
     55  0.982330D-04  0.238683D-03  0.154543D-03 -0.631385D-04 -0.640533D-04
     56  0.238683D-03 -0.143182D-02 -0.328121D-03  0.134054D-03  0.228251D-03
     57  0.000000D+00  0.172610D-02  0.660951D-03  0.000000D+00 -0.308552D-03
     58  0.000000D+00  0.000000D+00  0.000000D+00  0.133214D-03  0.000000D+00
     59  0.242216D-03  0.000000D+00  0.308552D-03  0.000000D+00 -0.240988D-04
     60  0.000000D+00 -0.264794D-02 -0.968405D-03  0.000000D+00  0.493734D-03
     61  0.308552D-03  0.968405D-03  0.113098D-02  0.000000D+00  0.000000D+00
     62  0.000000D+00  0.000000D+00  0.000000D+00  0.242216D-03  0.000000D+00
     63 -0.240988D-04 -0.493734D-03  0.000000D+00  0.000000D+00  0.242216D-03
     64 -0.493734D-03 -0.141640D-02 -0.172610D-02  0.000000D+00  0.000000D+00
     65  0.154546D-03  0.328130D-03  0.667154D-03 -0.270576D-03  0.149047D-03
     66  0.631388D-04  0.134055D-03  0.270576D-03  0.147475D-04  0.660233D-04
     67 -0.640542D-04 -0.228257D-03 -0.149047D-03  0.660233D-04  0.982354D-04
     68 -0.228257D-03 -0.441178D-03 -0.978172D-03  0.433300D-03 -0.238684D-03
     69  0.627855D-04  0.198218D-03  0.247979D-03 -0.183164D-03  0.000000D+00
     70  0.483984D-04  0.152797D-03  0.183164D-03 -0.101730D-03  0.000000D+00
     71 -0.256584D-05 -0.894941D-04  0.000000D+00  0.000000D+00  0.449001D-04
     72 -0.894941D-04 -0.256758D-03 -0.338691D-03  0.271138D-03  0.000000D+00
     73 -0.243652D-03  0.618275D-03  0.970869D-04  0.321070D-04 -0.829059D-04
     74 -0.140948D-04  0.119967D-03  0.468557D-04 -0.404557D-04 -0.235007D-04
     75 -0.243652D-03  0.618271D-03  0.970853D-04 -0.321066D-04 -0.829048D-04
     76 -0.149049D-03  0.978169D-03  0.240737D-03  0.907640D-04 -0.154546D-03
     77  0.660239D-04 -0.433299D-03 -0.907640D-04  0.637144D-05  0.631384D-04
     78  0.982341D-04  0.238686D-03  0.154546D-03  0.631384D-04 -0.640545D-04
     79  0.238686D-03 -0.143184D-02 -0.328127D-03 -0.134054D-03  0.228255D-03
     80  0.154543D-03  0.328121D-03  0.667145D-03  0.270575D-03  0.149047D-03
     81 -0.631385D-04 -0.134054D-03 -0.270575D-03  0.147445D-04 -0.660241D-04
     82 -0.640534D-04 -0.228251D-03 -0.149047D-03 -0.660241D-04  0.982329D-04
     83 -0.228251D-03 -0.441165D-03 -0.978158D-03 -0.433299D-03 -0.238684D-03
     84  0.829058D-04  0.116326D-03  0.468284D-03 -0.170650D-03  0.243652D-03
     85  0.235012D-04  0.538886D-04  0.999587D-04 -0.900652D-04  0.140949D-04
     86  0.627852D-04  0.198217D-03  0.247980D-03  0.183165D-03  0.000000D+00
     87 -0.483982D-04 -0.152796D-03 -0.183165D-03 -0.101730D-03  0.000000D+00
     88 -0.256582D-05 -0.894936D-04  0.000000D+00  0.000000D+00  0.449004D-04
     89 -0.894936D-04 -0.256756D-03 -0.338693D-03 -0.271140D-03  0.000000D+00
     90  0.000000D+00  0.338696D-03  0.150172D-03  0.107197D-03 -0.627863D-04
     91  0.000000D+00 -0.271141D-03 -0.107197D-03 -0.568514D-04  0.483989D-04
     92  0.449007D-04  0.000000D+00  0.627863D-04  0.483989D-04 -0.256581D-05
     93  0.000000D+00 -0.456469D-03 -0.198221D-03 -0.152799D-03  0.894954D-04
     94  0.829052D-04  0.116325D-03  0.468284D-03  0.170648D-03  0.243654D-03
     95  0.235004D-04  0.538867D-04  0.999565D-04  0.900635D-04  0.140946D-04
     96 -0.140947D-04  0.119967D-03  0.468560D-04  0.404559D-04 -0.235009D-04
               16            17            18            19            20
     16  0.100000D+01
     17  0.000000D+00  0.100000D+01
     18  0.000000D+00  0.000000D+00  0.100000D+01
     19  0.000000D+00  0.000000D+00  0.000000D+00  0.100000D+01
     20  0.235743D+00  0.000000D+00  0.000000D+00  0.000000D+00  0.100000D+01
     21  0.000000D+00  0.418185D+00 -0.363502D+00 -0.212226D+00  0.000000D+00
     22  0.000000D+00  0.363502D+00 -0.180925D+00 -0.253958D+00  0.000000D+00
     23  0.000000D+00  0.212226D+00 -0.253958D+00  0.105785D+00  0.000000D+00
     24  0.333110D-01  0.000000D+00  0.000000D+00  0.000000D+00  0.254056D+00
     25  0.000000D+00  0.107656D-02  0.833011D-03 -0.130400D-02  0.000000D+00
     26  0.000000D+00  0.129869D-01 -0.109269D-01 -0.135622D-01  0.000000D+00
     27  0.000000D+00  0.493725D-02  0.476065D-05 -0.681342D-02  0.000000D+00
     28  0.000000D+00  0.622670D-02  0.607935D-02 -0.685011D-02  0.000000D+00
     29  0.000000D+00 -0.607935D-02 -0.499074D-02  0.746813D-02  0.000000D+00
     30  0.000000D+00  0.685011D-02  0.746813D-02 -0.677788D-02  0.000000D+00
     31  0.316324D-01  0.000000D+00  0.000000D+00  0.000000D+00  0.163708D-02
     32  0.000000D+00  0.766371D-01  0.100826D+00  0.000000D+00  0.000000D+00
     33  0.000000D+00 -0.100826D+00 -0.127715D+00  0.000000D+00  0.000000D+00
     34  0.000000D+00  0.000000D+00  0.000000D+00  0.295730D-01  0.000000D+00
     35  0.235736D+00  0.000000D+00  0.000000D+00  0.000000D+00  0.295730D-01
     36  0.000000D+00  0.520189D+00  0.122346D-02  0.489247D+00  0.000000D+00
     37  0.000000D+00  0.122080D+00 -0.147806D+00 -0.108750D-01  0.000000D+00
     38  0.000000D+00  0.632582D-02  0.913909D-02 -0.172450D-02  0.000000D+00
     39  0.000000D+00 -0.913909D-02 -0.130801D-01  0.278262D-02  0.000000D+00
     40  0.000000D+00  0.172450D-02  0.278262D-02  0.114143D-02  0.000000D+00
     41  0.333113D-01  0.000000D+00  0.000000D+00  0.000000D+00  0.166650D-02
     42  0.000000D+00  0.207478D-02  0.271710D-02 -0.155938D-02  0.000000D+00
     43  0.000000D+00 -0.271710D-02 -0.344869D-02  0.225290D-02  0.000000D+00
     44  0.000000D+00  0.155938D-02  0.225290D-02 -0.816142D-03  0.000000D+00
     45  0.143756D-01  0.000000D+00  0.000000D+00  0.000000D+00  0.476827D-03
     46  0.000000D+00  0.460708D-01  0.541439D-01  0.236823D-01  0.000000D+00
     47  0.000000D+00  0.106158D-02  0.152548D-02 -0.517983D-04  0.000000D+00
     48  0.000000D+00  0.216594D-03  0.279641D-03 -0.160181D-03  0.000000D+00
     49  0.198217D-03  0.251250D-03 -0.907404D-04 -0.161130D-03  0.343471D-03
     50  0.152797D-03  0.907404D-04  0.100361D-04 -0.630773D-04  0.134458D-03
     51  0.894936D-04  0.161130D-03 -0.630773D-04 -0.664496D-04  0.238760D-03
     52 -0.256757D-03 -0.343471D-03  0.134458D-03  0.238760D-03 -0.463393D-03
     53  0.328121D-03  0.153337D-03  0.000000D+00 -0.126345D-03  0.202682D-03
     54  0.134054D-03  0.000000D+00  0.263830D-04  0.000000D+00  0.000000D+00
     55  0.228251D-03  0.126345D-03  0.000000D+00 -0.860541D-04  0.180371D-03
     56 -0.441165D-03 -0.202682D-03  0.000000D+00  0.180371D-03 -0.262967D-03
     57  0.968405D-03  0.240739D-03  0.907650D-04 -0.154546D-03  0.328130D-03
     58  0.000000D+00 -0.907650D-04  0.637145D-05  0.631388D-04 -0.134055D-03
     59  0.493734D-03  0.154546D-03  0.631388D-04 -0.640542D-04  0.228257D-03
     60 -0.141640D-02 -0.328130D-03 -0.134055D-03  0.228257D-03 -0.441178D-03
     61  0.172610D-02  0.667154D-03  0.270576D-03 -0.149047D-03  0.978172D-03
     62  0.000000D+00 -0.270576D-03  0.147475D-04  0.660233D-04 -0.433300D-03
     63  0.000000D+00  0.149047D-03  0.660233D-04  0.982354D-04  0.238684D-03
     64 -0.264794D-02 -0.978172D-03 -0.433300D-03  0.238684D-03 -0.143184D-02
     65  0.978172D-03  0.113098D-02  0.000000D+00  0.000000D+00  0.172610D-02
     66  0.433300D-03  0.000000D+00  0.242216D-03  0.000000D+00  0.000000D+00
     67 -0.238684D-03  0.000000D+00  0.000000D+00  0.242216D-03  0.000000D+00
     68 -0.143184D-02 -0.172610D-02  0.000000D+00  0.000000D+00 -0.264794D-02
     69  0.338691D-03  0.688985D-03 -0.267517D-03 -0.156186D-03  0.101261D-02
     70  0.271138D-03  0.267517D-03  0.260307D-04 -0.662536D-04  0.429543D-03
     71  0.000000D+00  0.156186D-03 -0.662536D-04  0.100829D-03  0.250783D-03
     72 -0.456463D-03 -0.101261D-02  0.429543D-03  0.250783D-03 -0.148640D-02
     73  0.116326D-03  0.133838D-04  0.795519D-05 -0.124531D-04  0.143953D-04
     74  0.538875D-04  0.102738D-03 -0.585548D-04 -0.726772D-04  0.123500D-03
     75  0.116324D-03  0.479522D-04  0.000000D+00 -0.477686D-04  0.552189D-04
     76  0.328127D-03  0.347681D-04  0.231114D-04 -0.260415D-04  0.417756D-04
     77 -0.134054D-03 -0.231114D-04 -0.112948D-04  0.185098D-04 -0.296934D-04
     78  0.228255D-03  0.260415D-04  0.185098D-04 -0.157243D-04  0.334580D-04
     79 -0.441173D-03 -0.417756D-04 -0.296934D-04  0.334580D-04 -0.485407D-04
     80  0.978158D-03  0.231566D-03  0.174148D-03  0.000000D+00  0.314783D-03
     81 -0.433299D-03 -0.174148D-03 -0.100249D-03  0.000000D+00 -0.256445D-03
     82 -0.238684D-03  0.000000D+00  0.000000D+00  0.416239D-04  0.000000D+00
     83 -0.143182D-02 -0.314783D-03 -0.256445D-03  0.000000D+00 -0.421916D-03
     84  0.618275D-03  0.105279D-02  0.000000D+00  0.355711D-03  0.147164D-02
     85  0.119968D-03  0.480219D-03 -0.301119D-03 -0.221552D-04  0.635102D-03
     86  0.338693D-03  0.352150D-04  0.346141D-04 -0.653152D-05  0.423459D-04
     87 -0.271140D-03 -0.346141D-04 -0.311787D-04  0.686544D-05 -0.445108D-04
     88  0.000000D+00  0.653152D-05  0.686544D-05  0.390959D-05  0.839898D-05
     89 -0.456466D-03 -0.423459D-04 -0.445108D-04  0.839898D-05 -0.492482D-04
     90  0.198221D-03  0.140226D-04  0.130363D-04 -0.748167D-05  0.159482D-04
     91 -0.152799D-03 -0.130363D-04 -0.109983D-04  0.739552D-05 -0.157646D-04
     92  0.894954D-04  0.748167D-05  0.739552D-05 -0.235649D-05  0.904749D-05
     93 -0.256762D-03 -0.159482D-04 -0.157646D-04  0.904749D-05 -0.173981D-04
     94  0.618275D-03  0.256702D-03  0.180163D-03  0.788024D-04  0.326016D-03
     95  0.119966D-03  0.132232D-04  0.146026D-04  0.000000D+00  0.142137D-04
     96  0.538879D-04  0.326557D-05  0.335659D-05 -0.192269D-05  0.326721D-05
               21            22            23            24            25
     21  0.100000D+01
     22  0.000000D+00  0.100000D+01
     23  0.000000D+00  0.000000D+00  0.100000D+01
     24  0.000000D+00  0.000000D+00  0.000000D+00  0.100000D+01
     25  0.615268D-03  0.675945D-03 -0.588246D-03  0.000000D+00  0.100000D+01
     26  0.116093D+00 -0.615788D-01 -0.127368D+00  0.000000D+00  0.880750D-03
     27  0.126731D-01  0.593719D-02 -0.159385D-01  0.000000D+00  0.615645D-01
     28  0.207471D-02  0.271701D-02 -0.155933D-02  0.000000D+00  0.520195D+00
     29 -0.271701D-02 -0.344858D-02  0.225283D-02  0.000000D+00 -0.122347D-02
     30  0.155933D-02  0.225283D-02 -0.816123D-03  0.000000D+00 -0.489250D+00
     31  0.000000D+00  0.000000D+00  0.000000D+00  0.476810D-03  0.000000D+00
     32  0.632552D-02  0.913867D-02  0.172444D-02  0.000000D+00  0.493725D-02
     33 -0.913867D-02 -0.130796D-01 -0.278252D-02  0.000000D+00 -0.479566D-05
     34 -0.172444D-02 -0.278252D-02  0.114136D-02  0.000000D+00 -0.681342D-02
     35  0.000000D+00  0.000000D+00  0.000000D+00  0.166641D-02  0.000000D+00
     36  0.121264D+00  0.818782D-01  0.122436D+00  0.000000D+00  0.164370D-03
     37  0.520729D+00 -0.425570D+00  0.241950D+00  0.000000D+00  0.701853D-04
     38  0.463416D-03  0.715527D-03  0.000000D+00  0.000000D+00  0.126733D-01
     39 -0.715527D-03 -0.111335D-02  0.000000D+00  0.000000D+00 -0.593731D-02
     40  0.000000D+00  0.000000D+00  0.898000D-04  0.000000D+00 -0.159387D-01
     41  0.000000D+00  0.000000D+00  0.000000D+00  0.898000D-04  0.000000D+00
     42  0.279197D-03  0.415856D-03 -0.121066D-03  0.000000D+00  0.121265D+00
     43 -0.415856D-03 -0.620724D-03  0.195614D-03  0.000000D+00 -0.818782D-01
     44  0.121066D-03  0.195614D-03 -0.574589D-05  0.000000D+00 -0.122437D+00
     45  0.000000D+00  0.000000D+00  0.000000D+00  0.512024D-04  0.000000D+00
     46  0.333997D-02  0.419340D-02  0.203279D-02  0.000000D+00  0.585154D-03
     47  0.635610D-04  0.960227D-04  0.887390D-05  0.000000D+00  0.233178D-02
     48  0.303519D-04  0.440315D-04 -0.148041D-04  0.000000D+00  0.627495D-01
     49  0.669194D-03  0.000000D+00 -0.309019D-03  0.981386D-03  0.348244D-04
     50  0.000000D+00  0.135062D-03  0.000000D+00  0.000000D+00  0.321882D-04
     51  0.309019D-03  0.000000D+00 -0.207998D-04  0.494988D-03 -0.156034D-04
     52 -0.981386D-03  0.000000D+00  0.494988D-03 -0.143693D-02 -0.394072D-04
     53  0.251250D-03  0.907389D-04 -0.161131D-03  0.343471D-03  0.256696D-03
     54 -0.907389D-04  0.100373D-04  0.630766D-04 -0.134456D-03  0.180161D-03
     55  0.161131D-03  0.630766D-04 -0.664508D-04  0.238762D-03 -0.787990D-04
     56 -0.343471D-03 -0.134456D-03  0.238762D-03 -0.463393D-03 -0.326008D-03
     57  0.150170D-03  0.107196D-03 -0.627855D-04  0.198218D-03  0.468284D-03
     58 -0.107196D-03 -0.568512D-04  0.483984D-04 -0.152797D-03  0.170650D-03
     59  0.627855D-04  0.483984D-04 -0.256584D-05  0.894941D-04 -0.243652D-03
     60 -0.198218D-03 -0.152797D-03  0.894941D-04 -0.256758D-03 -0.618275D-03
     61  0.247979D-03  0.183164D-03  0.000000D+00  0.338691D-03  0.970869D-04
     62 -0.183164D-03 -0.101730D-03  0.000000D+00 -0.271138D-03  0.321070D-04
     63  0.000000D+00  0.000000D+00  0.449001D-04  0.000000D+00 -0.829059D-04
     64 -0.338691D-03 -0.271138D-03  0.000000D+00 -0.456463D-03 -0.116326D-03
     65  0.688985D-03  0.267517D-03  0.156186D-03  0.101261D-02  0.133838D-04
     66 -0.267517D-03  0.260307D-04 -0.662536D-04 -0.429543D-03  0.795519D-05
     67 -0.156186D-03 -0.662536D-04  0.100829D-03 -0.250783D-03 -0.124531D-04
     68 -0.101261D-02 -0.429543D-03 -0.250783D-03 -0.148640D-02 -0.143953D-04
     69  0.113098D-02  0.000000D+00  0.000000D+00  0.172610D-02  0.823446D-05
     70  0.000000D+00  0.242216D-03  0.000000D+00  0.000000D+00  0.705455D-05
     71  0.000000D+00  0.000000D+00  0.242216D-03  0.000000D+00 -0.613927D-05
     72 -0.172610D-02  0.000000D+00  0.000000D+00 -0.264794D-02 -0.863672D-05
     73  0.823446D-05  0.705455D-05 -0.613927D-05  0.863672D-05  0.157661D-02
     74  0.465804D-03 -0.129069D-03 -0.266962D-03  0.614782D-03  0.160149D-04
     75  0.100837D-03  0.320619D-04 -0.860708D-04  0.121084D-03  0.416684D-03
     76  0.140222D-04  0.130359D-04 -0.748149D-05  0.159478D-04  0.105279D-02
     77 -0.130359D-04 -0.109980D-04  0.739535D-05 -0.157641D-04  0.000000D+00
     78  0.748149D-05  0.739535D-05 -0.235646D-05  0.904726D-05 -0.355709D-03
     79 -0.159478D-04 -0.157641D-04  0.904726D-05 -0.173976D-04 -0.147164D-02
     80  0.352137D-04  0.346129D-04  0.653135D-05  0.423442D-04  0.479522D-04
     81 -0.346129D-04 -0.311777D-04 -0.686528D-05 -0.445092D-04  0.000000D+00
     82 -0.653135D-05 -0.686528D-05  0.390939D-05 -0.839874D-05 -0.477686D-04
     83 -0.423442D-04 -0.445092D-04 -0.839874D-05 -0.492461D-04 -0.552189D-04
     84  0.478278D-03  0.167444D-03  0.250386D-03  0.632362D-03  0.372528D-05
     85  0.105331D-02 -0.309119D-03  0.175744D-03  0.147242D-02  0.173765D-05
     86  0.386832D-05  0.441589D-05  0.000000D+00  0.408274D-05  0.100839D-03
     87 -0.441589D-05 -0.486250D-05  0.000000D+00 -0.491804D-05 -0.320624D-04
     88  0.000000D+00  0.000000D+00  0.000000D+00  0.000000D+00 -0.860718D-04
     89 -0.408274D-05 -0.491804D-05  0.000000D+00 -0.409015D-05 -0.121086D-03
     90  0.247716D-05  0.275731D-05  0.000000D+00  0.254929D-05  0.478280D-03
     91 -0.275731D-05 -0.295087D-05  0.000000D+00 -0.298661D-05 -0.167443D-03
     92  0.000000D+00  0.000000D+00  0.000000D+00  0.000000D+00 -0.250387D-03
     93 -0.254929D-05 -0.298661D-05  0.000000D+00 -0.248185D-05 -0.632365D-03
     94  0.348247D-04  0.321884D-04  0.156036D-04  0.394076D-04  0.112915D-04
     95  0.107373D-05  0.131183D-05  0.000000D+00  0.101571D-05  0.361982D-04
     96  0.000000D+00  0.000000D+00  0.000000D+00  0.000000D+00  0.421725D-03
               26            27            28            29            30
     26  0.100000D+01
     27  0.627490D-01  0.100000D+01
     28  0.106161D-02  0.460704D-01  0.100000D+01
     29 -0.152551D-02 -0.541436D-01  0.000000D+00  0.100000D+01
     30  0.518028D-04 -0.236818D-01  0.000000D+00  0.000000D+00  0.100000D+01
     31  0.000000D+00  0.000000D+00  0.000000D+00  0.000000D+00  0.000000D+00
     32  0.216583D-03  0.107649D-02  0.428270D-01  0.000000D+00  0.584418D-01
     33 -0.279627D-03 -0.832964D-03  0.000000D+00  0.148670D-01  0.000000D+00
     34 -0.160173D-03 -0.130392D-02 -0.584418D-01  0.000000D+00 -0.777004D-01
     35  0.000000D+00  0.000000D+00  0.000000D+00  0.000000D+00  0.000000D+00
     36  0.233181D-02  0.585154D-03  0.107654D-02 -0.832994D-03  0.130397D-02
     37  0.608514D-01  0.233179D-02  0.216596D-03 -0.279643D-03  0.160184D-03
     38  0.303519D-04  0.615259D-03  0.862692D-01  0.551949D-01  0.980113D-01
     39 -0.440315D-04 -0.675935D-03 -0.551949D-01 -0.800992D-02 -0.747472D-01
     40 -0.148041D-04 -0.588239D-03 -0.980113D-01 -0.747472D-01 -0.986471D-01
     41  0.000000D+00  0.000000D+00  0.000000D+00  0.000000D+00  0.000000D+00
     42  0.635641D-04  0.333997D-02  0.418187D+00  0.363501D+00  0.212230D+00
     43 -0.960273D-04 -0.419339D-02 -0.363501D+00 -0.180920D+00 -0.253962D+00
     44 -0.887437D-05 -0.203279D-02 -0.212230D+00 -0.253962D+00  0.105781D+00
     45  0.000000D+00  0.000000D+00  0.000000D+00  0.000000D+00  0.000000D+00
     46  0.701843D-04  0.164365D-03  0.493715D-02 -0.477805D-05  0.681329D-02
     47  0.333018D-05  0.701818D-04  0.129865D-01  0.109266D-01  0.135619D-01
     48  0.101296D-04  0.880745D-03  0.122077D+00  0.147803D+00  0.108755D-01
     49  0.105330D-02  0.478273D-03  0.352149D-04 -0.346140D-04  0.653160D-05
     50 -0.309121D-03  0.167442D-03  0.346140D-04 -0.311785D-04  0.686552D-05
     51 -0.175744D-03 -0.250385D-03 -0.653160D-05  0.686552D-05  0.390953D-05
     52 -0.147241D-02 -0.632356D-03 -0.423458D-04  0.445106D-04 -0.839908D-05
     53  0.480224D-03  0.105279D-02  0.231566D-03 -0.174148D-03  0.000000D+00
     54 -0.301120D-03  0.000000D+00  0.174148D-03 -0.100249D-03  0.000000D+00
     55  0.221568D-04 -0.355711D-03  0.000000D+00  0.000000D+00  0.416239D-04
     56 -0.635108D-03 -0.147164D-02 -0.314783D-03  0.256445D-03  0.000000D+00
     57  0.999579D-04  0.468281D-03  0.667152D-03 -0.270575D-03  0.149049D-03
     58 -0.900645D-04 -0.170648D-03  0.270575D-03  0.147476D-04  0.660239D-04
     59 -0.140948D-04 -0.243652D-03 -0.149049D-03  0.660239D-04  0.982341D-04
     60 -0.119967D-03 -0.618271D-03 -0.978169D-03  0.433299D-03 -0.238686D-03
     61  0.468557D-04  0.970853D-04  0.240737D-03 -0.907640D-04  0.154546D-03
     62 -0.404557D-04 -0.321066D-04  0.907640D-04  0.637144D-05  0.631384D-04
     63 -0.235007D-04 -0.829048D-04 -0.154546D-03  0.631384D-04 -0.640545D-04
     64 -0.538875D-04 -0.116324D-03 -0.328127D-03  0.134054D-03 -0.228255D-03
     65  0.102738D-03  0.479522D-04  0.347681D-04 -0.231114D-04  0.260415D-04
     66 -0.585548D-04  0.000000D+00  0.231114D-04 -0.112948D-04  0.185098D-04
     67 -0.726772D-04 -0.477686D-04 -0.260415D-04  0.185098D-04 -0.157243D-04
     68 -0.123500D-03 -0.552189D-04 -0.417756D-04  0.296934D-04 -0.334580D-04
     69  0.465804D-03  0.100837D-03  0.140222D-04 -0.130359D-04  0.748149D-05
     70 -0.129069D-03  0.320619D-04  0.130359D-04 -0.109980D-04  0.739535D-05
     71 -0.266962D-03 -0.860708D-04 -0.748149D-05  0.739535D-05 -0.235646D-05
     72 -0.614782D-03 -0.121084D-03 -0.159478D-04  0.157641D-04 -0.904726D-05
     73  0.160149D-04  0.416684D-03  0.105279D-02  0.000000D+00 -0.355709D-03
     74  0.157661D-02  0.421723D-03  0.132235D-04 -0.146028D-04  0.000000D+00
     75  0.421723D-03  0.157661D-02  0.256700D-03 -0.180162D-03 -0.788012D-04
     76  0.132235D-04  0.256700D-03  0.113098D-02  0.000000D+00  0.000000D+00
     77 -0.146028D-04 -0.180162D-03  0.000000D+00  0.242216D-03  0.000000D+00
     78  0.000000D+00 -0.788012D-04  0.000000D+00  0.000000D+00  0.242216D-03
     79 -0.142140D-04 -0.326014D-03 -0.172610D-02  0.000000D+00  0.000000D+00
     80  0.326542D-05  0.133831D-04  0.153335D-03  0.000000D+00  0.126344D-03
     81 -0.335643D-05 -0.795482D-05  0.000000D+00  0.263826D-04  0.000000D+00
     82 -0.192260D-05 -0.124524D-04 -0.126344D-03  0.000000D+00 -0.860536D-04
     83 -0.326705D-05 -0.143946D-04 -0.202679D-03  0.000000D+00 -0.180369D-03
     84  0.361985D-04  0.112915D-04  0.133836D-04 -0.795505D-05  0.124529D-04
     85  0.413626D-03  0.361983D-04  0.326560D-05 -0.335661D-05  0.192271D-05
     86  0.000000D+00  0.823436D-05  0.251247D-03  0.907393D-04  0.161129D-03
     87  0.000000D+00 -0.705445D-05 -0.907393D-04  0.100360D-04 -0.630768D-04
     88  0.000000D+00 -0.613921D-05 -0.161129D-03 -0.630768D-04 -0.664498D-04
     89  0.000000D+00 -0.863660D-05 -0.343466D-03 -0.134456D-03 -0.238758D-03
     90  0.107377D-05  0.348247D-04  0.688987D-03  0.267515D-03  0.156189D-03
     91 -0.131189D-05 -0.321883D-04 -0.267515D-03  0.260326D-04 -0.662542D-04
     92  0.000000D+00 -0.156036D-04 -0.156189D-03 -0.662542D-04  0.100828D-03
     93 -0.101576D-05 -0.394075D-04 -0.101261D-02 -0.429540D-03 -0.250788D-03
     94  0.173762D-05  0.372518D-05  0.479514D-04  0.000000D+00  0.477679D-04
     95  0.000000D+00  0.173757D-05  0.102736D-03  0.585538D-04  0.726759D-04
     96  0.000000D+00  0.160148D-04  0.480214D-03  0.301117D-03  0.221563D-04
               31            32            33            34            35
     31  0.100000D+01
     32  0.000000D+00  0.100000D+01
     33  0.000000D+00  0.000000D+00  0.100000D+01
     34  0.000000D+00  0.000000D+00  0.000000D+00  0.100000D+01
     35  0.148670D-01  0.000000D+00  0.000000D+00  0.000000D+00  0.100000D+01
     36  0.000000D+00  0.460693D-01 -0.541424D-01  0.236809D-01  0.000000D+00
     37  0.000000D+00  0.106158D-02 -0.152547D-02 -0.518016D-04  0.000000D+00
     38  0.000000D+00  0.418191D+00  0.363503D+00 -0.212233D+00  0.000000D+00
     39  0.000000D+00 -0.363503D+00 -0.180916D+00  0.253964D+00  0.000000D+00
     40  0.000000D+00  0.212233D+00  0.253964D+00  0.105783D+00  0.000000D+00
     41  0.340838D-01  0.000000D+00  0.000000D+00  0.000000D+00  0.254061D+00
     42  0.000000D+00  0.862716D-01  0.551952D-01 -0.980144D-01  0.000000D+00
     43  0.000000D+00 -0.551952D-01 -0.800824D-02  0.747480D-01  0.000000D+00
     44  0.000000D+00  0.980144D-01  0.747480D-01 -0.986508D-01  0.000000D+00
     45  0.254057D+00  0.000000D+00  0.000000D+00  0.000000D+00  0.340849D-01
     46  0.000000D+00  0.520189D+00 -0.123695D-02  0.489247D+00  0.000000D+00
     47  0.000000D+00  0.122079D+00  0.147806D+00 -0.108757D-01  0.000000D+00
     48  0.000000D+00  0.129870D-01  0.109269D-01 -0.135624D-01  0.000000D+00
     49  0.423458D-04  0.140217D-04 -0.130355D-04 -0.748123D-05  0.159472D-04
     50  0.445106D-04  0.130355D-04 -0.109977D-04 -0.739511D-05  0.157636D-04
     51 -0.839908D-05  0.748123D-05 -0.739511D-05 -0.235637D-05  0.904692D-05
     52 -0.492480D-04 -0.159472D-04  0.157636D-04  0.904692D-05 -0.173969D-04
     53  0.314783D-03  0.347660D-04 -0.231103D-04 -0.260399D-04  0.417729D-04
     54  0.256445D-03  0.231103D-04 -0.112946D-04 -0.185090D-04  0.296918D-04
     55  0.000000D+00  0.260399D-04 -0.185090D-04 -0.157233D-04  0.334558D-04
     56 -0.421916D-03 -0.417729D-04  0.296918D-04  0.334558D-04 -0.485374D-04
     57  0.978169D-03  0.240733D-03 -0.907643D-04 -0.154543D-03  0.328121D-03
     58  0.433299D-03  0.907643D-04  0.636991D-05 -0.631385D-04  0.134054D-03
     59 -0.238686D-03  0.154543D-03 -0.631385D-04 -0.640534D-04  0.228251D-03
     60 -0.143184D-02 -0.328121D-03  0.134054D-03  0.228251D-03 -0.441165D-03
     61  0.328127D-03  0.667145D-03 -0.270575D-03 -0.149047D-03  0.978158D-03
     62  0.134054D-03  0.270575D-03  0.147445D-04 -0.660241D-04  0.433299D-03
     63 -0.228255D-03  0.149047D-03 -0.660241D-04  0.982329D-04  0.238684D-03
     64 -0.441173D-03 -0.978158D-03  0.433299D-03  0.238684D-03 -0.143182D-02
     65  0.417756D-04  0.231566D-03 -0.174148D-03  0.000000D+00  0.314783D-03
     66  0.296934D-04  0.174148D-03 -0.100249D-03  0.000000D+00  0.256445D-03
     67 -0.334580D-04  0.000000D+00  0.000000D+00  0.416239D-04  0.000000D+00
     68 -0.485407D-04 -0.314783D-03  0.256445D-03  0.000000D+00 -0.421916D-03
     69  0.159478D-04  0.352137D-04 -0.346129D-04 -0.653135D-05  0.423442D-04
     70  0.157641D-04  0.346129D-04 -0.311777D-04 -0.686528D-05  0.445092D-04
     71 -0.904726D-05  0.653135D-05 -0.686528D-05  0.390939D-05  0.839874D-05
     72 -0.173976D-04 -0.423442D-04  0.445092D-04  0.839874D-05 -0.492461D-04
     73  0.147164D-02  0.479522D-04  0.000000D+00 -0.477686D-04  0.552189D-04
     74  0.142140D-04  0.326542D-05 -0.335643D-05 -0.192260D-05  0.326705D-05
     75  0.326014D-03  0.133831D-04 -0.795482D-05 -0.124524D-04  0.143946D-04
     76  0.172610D-02  0.153335D-03  0.000000D+00 -0.126344D-03  0.202679D-03
     77  0.000000D+00  0.000000D+00  0.263826D-04  0.000000D+00  0.000000D+00
     78  0.000000D+00  0.126344D-03  0.000000D+00 -0.860536D-04  0.180369D-03
     79 -0.264794D-02 -0.202679D-03  0.000000D+00  0.180369D-03 -0.262962D-03
     80  0.202679D-03  0.113098D-02  0.000000D+00  0.000000D+00  0.172610D-02
     81  0.000000D+00  0.000000D+00  0.242216D-03  0.000000D+00  0.000000D+00
     82 -0.180369D-03  0.000000D+00  0.000000D+00  0.242216D-03  0.000000D+00
     83 -0.262962D-03 -0.172610D-02  0.000000D+00  0.000000D+00 -0.264794D-02
     84  0.143951D-04  0.256696D-03 -0.180161D-03  0.787990D-04  0.326008D-03
     85  0.326724D-05  0.132232D-04 -0.146026D-04  0.000000D+00  0.142137D-04
     86  0.343466D-03  0.688991D-03  0.267515D-03 -0.156190D-03  0.101261D-02
     87 -0.134456D-03 -0.267515D-03  0.260347D-04  0.662541D-04 -0.429540D-03
     88 -0.238758D-03  0.156190D-03  0.662541D-04  0.100829D-03  0.250789D-03
     89 -0.463387D-03 -0.101261D-02 -0.429540D-03  0.250789D-03 -0.148641D-02
     90  0.101261D-02  0.251252D-03  0.907388D-04 -0.161132D-03  0.343473D-03
     91 -0.429540D-03 -0.907388D-04  0.100380D-04  0.630765D-04 -0.134456D-03
     92 -0.250788D-03  0.161132D-03  0.630765D-04 -0.664512D-04  0.238763D-03
     93 -0.148640D-02 -0.343473D-03 -0.134456D-03  0.238763D-03 -0.463397D-03
     94  0.552179D-04  0.105279D-02  0.000000D+00  0.355711D-03  0.147164D-02
     95  0.123497D-03  0.480219D-03  0.301118D-03 -0.221566D-04  0.635101D-03
     96  0.635095D-03  0.102739D-03  0.585547D-04 -0.726780D-04  0.123501D-03
               36            37            38            39            40
     36  0.100000D+01
     37  0.627504D-01  0.100000D+01
     38  0.333994D-02  0.635641D-04  0.100000D+01
     39 -0.419337D-02 -0.960274D-04  0.000000D+00  0.100000D+01
     40  0.203276D-02  0.887436D-05  0.000000D+00  0.000000D+00  0.100000D+01
     41  0.000000D+00  0.000000D+00  0.000000D+00  0.000000D+00  0.000000D+00
     42  0.615279D-03  0.303534D-04  0.398147D+00 -0.287640D-05 -0.407575D+00
     43 -0.675957D-03 -0.440336D-04  0.287640D-05  0.237410D+00 -0.401758D-05
     44  0.588257D-03  0.148049D-04  0.407575D+00 -0.401758D-05 -0.331866D+00
     45  0.000000D+00  0.000000D+00  0.000000D+00  0.000000D+00  0.000000D+00
     46  0.615655D-01  0.880781D-03  0.121261D+00 -0.818766D-01  0.122433D+00
     47  0.880733D-03  0.101296D-04  0.520720D+00  0.425567D+00  0.241943D+00
     48  0.701841D-04  0.333034D-05  0.116093D+00  0.615788D-01 -0.127368D+00
     49  0.100839D-03  0.465806D-03  0.247711D-05 -0.275725D-05  0.000000D+00
     50  0.320625D-04 -0.129068D-03  0.275725D-05 -0.295081D-05  0.000000D+00
     51  0.860719D-04  0.266963D-03  0.000000D+00  0.000000D+00  0.000000D+00
     52 -0.121086D-03 -0.614786D-03 -0.254923D-05  0.298655D-05  0.000000D+00
     53  0.479522D-04  0.102740D-03  0.140217D-04 -0.130355D-04 -0.748122D-05
     54  0.000000D+00 -0.585550D-04  0.130355D-04 -0.109977D-04 -0.739511D-05
     55  0.477686D-04  0.726787D-04  0.748122D-05 -0.739511D-05 -0.235637D-05
     56 -0.552189D-04 -0.123502D-03 -0.159472D-04  0.157636D-04  0.904691D-05
     57  0.970868D-04  0.468566D-04  0.150169D-03 -0.107196D-03 -0.627852D-04
     58 -0.321069D-04 -0.404563D-04  0.107196D-03 -0.568511D-04 -0.483982D-04
     59  0.829058D-04  0.235012D-04  0.627852D-04 -0.483982D-04 -0.256582D-05
     60 -0.116326D-03 -0.538886D-04 -0.198217D-03  0.152796D-03  0.894936D-04
     61  0.468284D-03  0.999587D-04  0.247980D-03 -0.183165D-03  0.000000D+00
     62 -0.170650D-03 -0.900652D-04  0.183165D-03 -0.101730D-03  0.000000D+00
     63  0.243652D-03  0.140949D-04  0.000000D+00  0.000000D+00  0.449004D-04
     64 -0.618275D-03 -0.119968D-03 -0.338693D-03  0.271140D-03  0.000000D+00
     65  0.105279D-02  0.480219D-03  0.352150D-04 -0.346141D-04  0.653152D-05
     66  0.000000D+00 -0.301119D-03  0.346141D-04 -0.311787D-04  0.686544D-05
     67  0.355711D-03 -0.221552D-04 -0.653152D-05  0.686544D-05  0.390959D-05
     68 -0.147164D-02 -0.635102D-03 -0.423459D-04  0.445108D-04 -0.839898D-05
     69  0.478278D-03  0.105331D-02  0.386832D-05 -0.441589D-05  0.000000D+00
     70  0.167444D-03 -0.309119D-03  0.441589D-05 -0.486250D-05  0.000000D+00
     71  0.250386D-03  0.175744D-03  0.000000D+00  0.000000D+00  0.000000D+00
     72 -0.632362D-03 -0.147242D-02 -0.408274D-05  0.491804D-05  0.000000D+00
     73  0.372528D-05  0.173765D-05  0.100839D-03 -0.320624D-04 -0.860718D-04
     74  0.361985D-04  0.413626D-03  0.000000D+00  0.000000D+00  0.000000D+00
     75  0.112915D-04  0.361983D-04  0.823436D-05 -0.705445D-05 -0.613921D-05
     76  0.133836D-04  0.326560D-05  0.251247D-03 -0.907393D-04 -0.161129D-03
     77 -0.795505D-05 -0.335661D-05  0.907393D-04  0.100360D-04 -0.630768D-04
     78  0.124529D-04  0.192271D-05  0.161129D-03 -0.630768D-04 -0.664498D-04
     79 -0.143951D-04 -0.326724D-05 -0.343466D-03  0.134456D-03  0.238758D-03
     80  0.256696D-03  0.132232D-04  0.688991D-03 -0.267515D-03  0.156190D-03
     81 -0.180161D-03 -0.146026D-04  0.267515D-03  0.260347D-04  0.662541D-04
     82  0.787990D-04  0.000000D+00 -0.156190D-03  0.662541D-04  0.100829D-03
     83 -0.326008D-03 -0.142137D-04 -0.101261D-02  0.429540D-03 -0.250789D-03
     84  0.157661D-02  0.421729D-03  0.348244D-04 -0.321882D-04  0.156034D-04
     85  0.421729D-03  0.157661D-02  0.107377D-05 -0.131189D-05  0.000000D+00
     86  0.348244D-04  0.107377D-05  0.113098D-02  0.000000D+00  0.000000D+00
     87 -0.321882D-04 -0.131189D-05  0.000000D+00  0.242216D-03  0.000000D+00
     88  0.156034D-04  0.000000D+00  0.000000D+00  0.000000D+00  0.242216D-03
     89 -0.394072D-04 -0.101576D-05 -0.172610D-02  0.000000D+00  0.000000D+00
     90  0.823460D-05  0.000000D+00  0.669194D-03  0.000000D+00 -0.309019D-03
     91 -0.705465D-05  0.000000D+00  0.000000D+00  0.135062D-03  0.000000D+00
     92  0.613937D-05  0.000000D+00  0.309019D-03  0.000000D+00 -0.207998D-04
     93 -0.863687D-05  0.000000D+00 -0.981386D-03  0.000000D+00  0.494988D-03
     94  0.416688D-03  0.160154D-04  0.478271D-03 -0.167443D-03  0.250384D-03
     95  0.160146D-04  0.000000D+00  0.105330D-02  0.309123D-03  0.175742D-03
     96  0.173762D-05  0.000000D+00  0.465804D-03  0.129069D-03 -0.266962D-03
               41            42            43            44            45
     41  0.100000D+01
     42  0.000000D+00  0.100000D+01
     43  0.000000D+00  0.000000D+00  0.100000D+01
     44  0.000000D+00  0.000000D+00  0.000000D+00  0.100000D+01
     45  0.237410D+00  0.000000D+00  0.000000D+00  0.000000D+00  0.100000D+01
     46  0.000000D+00  0.126731D-01 -0.593720D-02  0.159385D-01  0.000000D+00
     47  0.000000D+00  0.116092D+00  0.615791D-01  0.127366D+00  0.000000D+00
     48  0.000000D+00  0.520719D+00  0.425567D+00 -0.241944D+00  0.000000D+00
     49  0.254923D-05  0.386841D-05 -0.441598D-05  0.000000D+00  0.408283D-05
     50  0.298655D-05  0.441598D-05 -0.486259D-05  0.000000D+00  0.491815D-05
     51  0.000000D+00  0.000000D+00  0.000000D+00  0.000000D+00  0.000000D+00
     52 -0.248179D-05 -0.408283D-05  0.491815D-05  0.000000D+00 -0.409025D-05
     53  0.159472D-04  0.352143D-04 -0.346135D-04 -0.653148D-05  0.423450D-04
     54  0.157636D-04  0.346135D-04 -0.311781D-04 -0.686540D-05  0.445099D-04
     55  0.904691D-05  0.653148D-05 -0.686540D-05  0.390946D-05  0.839891D-05
     56 -0.173969D-04 -0.423450D-04  0.445099D-04  0.839891D-05 -0.492470D-04
     57  0.198217D-03  0.247982D-03 -0.183166D-03  0.000000D+00  0.338696D-03
     58  0.152796D-03  0.183166D-03 -0.101730D-03  0.000000D+00  0.271141D-03
     59  0.894936D-04  0.000000D+00  0.000000D+00  0.449007D-04  0.000000D+00
     60 -0.256756D-03 -0.338696D-03  0.271141D-03  0.000000D+00 -0.456469D-03
     61  0.338693D-03  0.150172D-03 -0.107197D-03  0.627863D-04  0.198221D-03
     62  0.271140D-03  0.107197D-03 -0.568514D-04  0.483989D-04  0.152799D-03
     63  0.000000D+00 -0.627863D-04  0.483989D-04 -0.256581D-05 -0.894954D-04
     64 -0.456466D-03 -0.198221D-03  0.152799D-03 -0.894954D-04 -0.256762D-03
     65  0.423459D-04  0.140226D-04 -0.130363D-04  0.748167D-05  0.159482D-04
     66  0.445108D-04  0.130363D-04 -0.109983D-04  0.739552D-05  0.157646D-04
     67 -0.839898D-05 -0.748167D-05  0.739552D-05 -0.235649D-05 -0.904749D-05
     68 -0.492482D-04 -0.159482D-04  0.157646D-04 -0.904749D-05 -0.173981D-04
     69  0.408274D-05  0.247716D-05 -0.275731D-05  0.000000D+00  0.254929D-05
     70  0.491804D-05  0.275731D-05 -0.295087D-05  0.000000D+00  0.298661D-05
     71  0.000000D+00  0.000000D+00  0.000000D+00  0.000000D+00  0.000000D+00
     72 -0.409015D-05 -0.254929D-05  0.298661D-05  0.000000D+00 -0.248185D-05
     73  0.121086D-03  0.478280D-03 -0.167443D-03 -0.250387D-03  0.632365D-03
     74  0.000000D+00  0.107377D-05 -0.131189D-05  0.000000D+00  0.101576D-05
     75  0.863660D-05  0.348247D-04 -0.321883D-04 -0.156036D-04  0.394075D-04
     76  0.343466D-03  0.688987D-03 -0.267515D-03 -0.156189D-03  0.101261D-02
     77  0.134456D-03  0.267515D-03  0.260326D-04 -0.662542D-04  0.429540D-03
     78  0.238758D-03  0.156189D-03 -0.662542D-04  0.100828D-03  0.250788D-03
     79 -0.463387D-03 -0.101261D-02  0.429540D-03  0.250788D-03 -0.148640D-02
     80  0.101261D-02  0.251252D-03 -0.907388D-04  0.161132D-03  0.343473D-03
     81  0.429540D-03  0.907388D-04  0.100380D-04  0.630765D-04  0.134456D-03
     82 -0.250789D-03 -0.161132D-03  0.630765D-04 -0.664512D-04 -0.238763D-03
     83 -0.148641D-02 -0.343473D-03  0.134456D-03 -0.238763D-03 -0.463397D-03
     84  0.394072D-04  0.823460D-05 -0.705465D-05  0.613937D-05  0.863687D-05
     85  0.101576D-05  0.000000D+00  0.000000D+00  0.000000D+00  0.000000D+00
     86  0.172610D-02  0.669194D-03  0.000000D+00  0.309019D-03  0.981386D-03
     87  0.000000D+00  0.000000D+00  0.135062D-03  0.000000D+00  0.000000D+00
     88  0.000000D+00 -0.309019D-03  0.000000D+00 -0.207998D-04 -0.494988D-03
     89 -0.264794D-02 -0.981386D-03  0.000000D+00 -0.494988D-03 -0.143693D-02
     90  0.981386D-03  0.113098D-02  0.000000D+00  0.000000D+00  0.172610D-02
     91  0.000000D+00  0.000000D+00  0.242216D-03  0.000000D+00  0.000000D+00
     92  0.494988D-03  0.000000D+00  0.000000D+00  0.242216D-03  0.000000D+00
     93 -0.143693D-02 -0.172610D-02  0.000000D+00  0.000000D+00 -0.264794D-02
     94  0.632353D-03  0.100837D-03 -0.320620D-04  0.860709D-04  0.121084D-03
     95  0.147240D-02  0.465800D-03  0.129070D-03  0.266960D-03  0.614777D-03
     96  0.614782D-03  0.105330D-02  0.309123D-03 -0.175743D-03  0.147240D-02
               46            47            48            49            50
     46  0.100000D+01
     47  0.627472D-01  0.100000D+01
     48  0.233174D-02  0.608514D-01  0.100000D+01
     49  0.823449D-05  0.000000D+00  0.107375D-05  0.100000D+01
     50  0.705455D-05  0.000000D+00  0.131186D-05  0.000000D+00  0.100000D+01
     51  0.613931D-05  0.000000D+00  0.000000D+00  0.000000D+00  0.000000D+00
     52 -0.863675D-05  0.000000D+00 -0.101573D-05  0.000000D+00  0.000000D+00
     53  0.133832D-04  0.326536D-05  0.132230D-04  0.418191D+00  0.363502D+00
     54  0.795487D-05  0.335638D-05  0.146023D-04 -0.363502D+00 -0.180916D+00
     55  0.124526D-04  0.192256D-05  0.000000D+00  0.212233D+00  0.253964D+00
     56 -0.143947D-04 -0.326698D-05 -0.142134D-04  0.000000D+00  0.000000D+00
     57  0.970858D-04  0.468550D-04  0.999574D-04  0.846391D-01  0.110523D+00
     58  0.321064D-04  0.404552D-04  0.900641D-04 -0.110523D+00 -0.138570D+00
     59  0.829052D-04  0.235004D-04 -0.140947D-04  0.382034D-03  0.594126D-03
     60 -0.116325D-03 -0.538867D-04 -0.119967D-03  0.000000D+00  0.000000D+00
     61  0.468284D-03  0.999565D-04  0.468560D-04  0.416121D-01  0.490741D-01
     62  0.170648D-03  0.900635D-04  0.404559D-04 -0.490741D-01 -0.527411D-01
     63  0.243654D-03  0.140946D-04 -0.235009D-04 -0.287429D-01 -0.393103D-01
     64 -0.618275D-03 -0.119966D-03 -0.538879D-04  0.000000D+00  0.000000D+00
     65  0.256702D-03  0.132232D-04  0.326557D-05  0.862706D-01  0.551960D-01
     66  0.180163D-03  0.146026D-04  0.335659D-05 -0.551960D-01 -0.801020D-02
     67  0.788024D-04  0.000000D+00 -0.192269D-05 -0.980127D-01 -0.747485D-01
     68 -0.326016D-03 -0.142137D-04 -0.326721D-05  0.000000D+00  0.000000D+00
     69  0.348247D-04  0.107373D-05  0.000000D+00  0.398147D+00  0.000000D+00
     70  0.321884D-04  0.131183D-05  0.000000D+00  0.000000D+00  0.237410D+00
     71  0.156036D-04  0.000000D+00  0.000000D+00 -0.407575D+00  0.000000D+00
     72 -0.394076D-04 -0.101571D-05  0.000000D+00  0.000000D+00  0.000000D+00
     73  0.112915D-04  0.361982D-04  0.421725D-03  0.333994D-02  0.419336D-02
     74  0.173762D-05  0.000000D+00  0.000000D+00  0.520724D+00 -0.425568D+00
     75  0.372518D-05  0.173757D-05  0.160148D-04  0.121262D+00  0.818767D-01
     76  0.479514D-04  0.102736D-03  0.480214D-03  0.632579D-02  0.913905D-02
     77  0.000000D+00  0.585538D-04  0.301117D-03 -0.913905D-02 -0.130801D-01
     78  0.477679D-04  0.726759D-04  0.221563D-04  0.172452D-02  0.278265D-02
     79 -0.552179D-04 -0.123497D-03 -0.635095D-03  0.000000D+00  0.000000D+00
     80  0.105279D-02  0.480219D-03  0.102739D-03  0.207463D-02  0.271691D-02
     81  0.000000D+00  0.301118D-03  0.585547D-04 -0.271691D-02 -0.344846D-02
     82  0.355711D-03 -0.221566D-04 -0.726780D-04 -0.155926D-02 -0.225274D-02
     83 -0.147164D-02 -0.635101D-03 -0.123501D-03  0.000000D+00  0.000000D+00
     84  0.416688D-03  0.160146D-04  0.173762D-05  0.126733D-01  0.593732D-02
     85  0.160154D-04  0.000000D+00  0.000000D+00  0.116094D+00 -0.615787D-01
[...]
    21  C    0.000000   0.000000   0.000000   0.000000   0.000000   0.000000
    22  C    0.000000   0.000000   0.000000   0.000000   0.000000   0.000000
    23  C    0.000000   0.000000   0.000000   0.000000   0.000000   0.000000
    24  C    0.000000   0.000000   0.000000   0.000000   0.000000   0.000000
    25  H    0.000000   0.000000   0.000000   0.000000   0.000000   0.000000
    26  H    0.000000   0.000000   0.000000   0.000000   0.000000   0.000000
    27  H    0.000000   0.000000   0.000000   0.000000   0.000000   0.000000
    28  C    0.000000   0.000000   0.000000   0.000000   0.000000   0.000000
    29  C    0.000000   0.000000   0.000000   0.000000   0.000000   0.000000
    30  H    0.000000   0.000000   0.000000   0.000000   0.000000   0.000000
    31  H    0.000000   0.000000   0.000000   0.000000   0.000000   0.000000
    32  C    0.000000   0.000000   0.000000   0.000000   0.000000   0.000000
    33  C    0.000000   0.000000   0.000000   0.000000   0.000000   0.000000
    34  H    0.000000   0.000000   0.000000   0.000000   0.000000   0.000000
    35  H    0.000000   0.000000   0.000000   0.000000   0.000000   0.000000
    36  H    0.000000   0.000000   0.000000   0.000000   0.000000   0.000000
              7          8          9         10         11         12
     1  C    0.000000   0.000000   0.000000   0.000000   0.000000   0.000000
     2  C    0.000000   0.000000   0.000000   0.000000   0.000000   0.000000
     3  C    0.000000   0.000000   0.000000   0.000000   0.000000   0.000000
     4  C    0.000000   0.000000   0.000000   0.000000   0.000000   0.000000
     5  C    0.000000   0.000000   0.000000   0.000000   0.000000   0.000000
     6  C    0.000000   0.000000   0.000000   0.000000   0.000000   0.000000
     7  H    0.968202   0.000000   0.000000   0.000000   0.000000   0.000000
     8  H    0.000000   0.967661   0.000000   0.000000   0.000000   0.000000
     9  H    0.000000   0.000000   0.968203   0.000000   0.000000   0.000000
    10  C    0.000000   0.000000   0.000000   4.037183   0.000000   0.000000
    11  C    0.000000   0.000000   0.000000   0.000000   4.037184   0.000000
    12  H    0.000000   0.000000   0.000000   0.000000   0.000000   0.968205
    13  H    0.000000   0.000000   0.000000   0.000000   0.000000   0.000000
    14  C    0.000000   0.000000   0.000000   0.000000   0.000000   0.000000
    15  C    0.000000   0.000000   0.000000   0.000000   0.000000   0.000000
    16  H    0.000000   0.000000   0.000000   0.000000   0.000000   0.000000
    17  H    0.000000   0.000000   0.000000   0.000000   0.000000   0.000000
    18  H    0.000000   0.000000   0.000000   0.000000   0.000000   0.000000
    19  C    0.000000   0.000000   0.000000   0.000000   0.000000   0.000000
    20  C    0.000000   0.000000   0.000000   0.000000   0.000000   0.000000
    21  C    0.000000   0.000000   0.000000   0.000000   0.000000   0.000000
    22  C    0.000000   0.000000   0.000000   0.000000   0.000000   0.000000
    23  C    0.000000   0.000000   0.000000   0.000000   0.000000   0.000000
    24  C    0.000000   0.000000   0.000000   0.000000   0.000000   0.000000
    25  H    0.000000   0.000000   0.000000   0.000000   0.000000   0.000000
    26  H    0.000000   0.000000   0.000000   0.000000   0.000000   0.000000
    27  H    0.000000   0.000000   0.000000   0.000000   0.000000   0.000000
    28  C    0.000000   0.000000   0.000000   0.000000   0.000000   0.000000
    29  C    0.000000   0.000000   0.000000   0.000000   0.000000   0.000000
    30  H    0.000000   0.000000   0.000000   0.000000   0.000000   0.000000
    31  H    0.000000   0.000000   0.000000   0.000000   0.000000   0.000000
    32  C    0.000000   0.000000   0.000000   0.000000   0.000000   0.000000
    33  C    0.000000   0.000000   0.000000   0.000000   0.000000   0.000000
    34  H    0.000000   0.000000   0.000000   0.000000   0.000000   0.000000
    35  H    0.000000   0.000000   0.000000   0.000000   0.000000   0.000000
    36  H    0.000000   0.000000   0.000000   0.000000   0.000000   0.000000
             13         14         15         16         17         18
     1  C    0.000000   0.000000   0.000000   0.000000   0.000000   0.000000
     2  C    0.000000   0.000000   0.000000   0.000000   0.000000   0.000000
     3  C    0.000000   0.000000   0.000000   0.000000   0.000000   0.000000
     4  C    0.000000   0.000000   0.000000   0.000000   0.000000   0.000000
     5  C    0.000000   0.000000   0.000000   0.000000   0.000000   0.000000
     6  C    0.000000   0.000000   0.000000   0.000000   0.000000   0.000000
     7  H    0.000000   0.000000   0.000000   0.000000   0.000000   0.000000
     8  H    0.000000   0.000000   0.000000   0.000000   0.000000   0.000000
     9  H    0.000000   0.000000   0.000000   0.000000   0.000000   0.000000
    10  C    0.000000   0.000000   0.000000   0.000000   0.000000   0.000000
    11  C    0.000000   0.000000   0.000000   0.000000   0.000000   0.000000
    12  H    0.000000   0.000000   0.000000   0.000000   0.000000   0.000000
    13  H    0.967658   0.000000   0.000000   0.000000   0.000000   0.000000
    14  C    0.000000   4.034657   0.000000   0.000000   0.000000   0.000000
    15  C    0.000000   0.000000   4.034660   0.000000   0.000000   0.000000
    16  H    0.000000   0.000000   0.000000   0.968203   0.000000   0.000000
    17  H    0.000000   0.000000   0.000000   0.000000   0.967661   0.000000
    18  H    0.000000   0.000000   0.000000   0.000000   0.000000   0.967662
    19  C    0.000000   0.000000   0.000000   0.000000   0.000000   0.000000
    20  C    0.000000   0.000000   0.000000   0.000000   0.000000   0.000000
    21  C    0.000000   0.000000   0.000000   0.000000   0.000000   0.000000
    22  C    0.000000   0.000000   0.000000   0.000000   0.000000   0.000000
    23  C    0.000000   0.000000   0.000000   0.000000   0.000000   0.000000
    24  C    0.000000   0.000000   0.000000   0.000000   0.000000   0.000000
    25  H    0.000000   0.000000   0.000000   0.000000   0.000000   0.000000
    26  H    0.000000   0.000000   0.000000   0.000000   0.000000   0.000000
    27  H    0.000000   0.000000   0.000000   0.000000   0.000000   0.000000
    28  C    0.000000   0.000000   0.000000   0.000000   0.000000   0.000000
    29  C    0.000000   0.000000   0.000000   0.000000   0.000000   0.000000
    30  H    0.000000   0.000000   0.000000   0.000000   0.000000   0.000000
    31  H    0.000000   0.000000   0.000000   0.000000   0.000000   0.000000
    32  C    0.000000   0.000000   0.000000   0.000000   0.000000   0.000000
    33  C    0.000000   0.000000   0.000000   0.000000   0.000000   0.000000
    34  H    0.000000   0.000000   0.000000   0.000000   0.000000   0.000000
    35  H    0.000000   0.000000   0.000000   0.000000   0.000000   0.000000
    36  H    0.000000   0.000000   0.000000   0.000000   0.000000   0.000000
             19         20         21         22         23         24
     1  C    0.000000   0.000000   0.000000   0.000000   0.000000   0.000000
     2  C    0.000000   0.000000   0.000000   0.000000   0.000000   0.000000
     3  C    0.000000   0.000000   0.000000   0.000000   0.000000   0.000000
     4  C    0.000000   0.000000   0.000000   0.000000   0.000000   0.000000
     5  C    0.000000   0.000000   0.000000   0.000000   0.000000   0.000000
     6  C    0.000000   0.000000   0.000000   0.000000   0.000000   0.000000
     7  H    0.000000   0.000000   0.000000   0.000000   0.000000   0.000000
     8  H    0.000000   0.000000   0.000000   0.000000   0.000000   0.000000
     9  H    0.000000   0.000000   0.000000   0.000000   0.000000   0.000000
    10  C    0.000000   0.000000   0.000000   0.000000   0.000000   0.000000
    11  C    0.000000   0.000000   0.000000   0.000000   0.000000   0.000000
    12  H    0.000000   0.000000   0.000000   0.000000   0.000000   0.000000
    13  H    0.000000   0.000000   0.000000   0.000000   0.000000   0.000000
    14  C    0.000000   0.000000   0.000000   0.000000   0.000000   0.000000
    15  C    0.000000   0.000000   0.000000   0.000000   0.000000   0.000000
    16  H    0.000000   0.000000   0.000000   0.000000   0.000000   0.000000
    17  H    0.000000   0.000000   0.000000   0.000000   0.000000   0.000000
    18  H    0.000000   0.000000   0.000000   0.000000   0.000000   0.000000
    19  C    4.034657   0.000000   0.000000   0.000000   0.000000   0.000000
    20  C    0.000000   4.037185   0.000000   0.000000   0.000000   0.000000
    21  C    0.000000   0.000000   3.984586   0.000000   0.000000   0.000000
    22  C    0.000000   0.000000   0.000000   3.984586   0.000000   0.000000
    23  C    0.000000   0.000000   0.000000   0.000000   4.037183   0.000000
    24  C    0.000000   0.000000   0.000000   0.000000   0.000000   4.034662
    25  H    0.000000   0.000000   0.000000   0.000000   0.000000   0.000000
    26  H    0.000000   0.000000   0.000000   0.000000   0.000000   0.000000
    27  H    0.000000   0.000000   0.000000   0.000000   0.000000   0.000000
    28  C    0.000000   0.000000   0.000000   0.000000   0.000000   0.000000
    29  C    0.000000   0.000000   0.000000   0.000000   0.000000   0.000000
    30  H    0.000000   0.000000   0.000000   0.000000   0.000000   0.000000
    31  H    0.000000   0.000000   0.000000   0.000000   0.000000   0.000000
    32  C    0.000000   0.000000   0.000000   0.000000   0.000000   0.000000
    33  C    0.000000   0.000000   0.000000   0.000000   0.000000   0.000000
    34  H    0.000000   0.000000   0.000000   0.000000   0.000000   0.000000
    35  H    0.000000   0.000000   0.000000   0.000000   0.000000   0.000000
    36  H    0.000000   0.000000   0.000000   0.000000   0.000000   0.000000
             25         26         27         28         29         30
     1  C    0.000000   0.000000   0.000000   0.000000   0.000000   0.000000
     2  C    0.000000   0.000000   0.000000   0.000000   0.000000   0.000000
     3  C    0.000000   0.000000   0.000000   0.000000   0.000000   0.000000
     4  C    0.000000   0.000000   0.000000   0.000000   0.000000   0.000000
     5  C    0.000000   0.000000   0.000000   0.000000   0.000000   0.000000
     6  C    0.000000   0.000000   0.000000   0.000000   0.000000   0.000000
     7  H    0.000000   0.000000   0.000000   0.000000   0.000000   0.000000
     8  H    0.000000   0.000000   0.000000   0.000000   0.000000   0.000000
     9  H    0.000000   0.000000   0.000000   0.000000   0.000000   0.000000
    10  C    0.000000   0.000000   0.000000   0.000000   0.000000   0.000000
    11  C    0.000000   0.000000   0.000000   0.000000   0.000000   0.000000
    12  H    0.000000   0.000000   0.000000   0.000000   0.000000   0.000000
    13  H    0.000000   0.000000   0.000000   0.000000   0.000000   0.000000
    14  C    0.000000   0.000000   0.000000   0.000000   0.000000   0.000000
    15  C    0.000000   0.000000   0.000000   0.000000   0.000000   0.000000
    16  H    0.000000   0.000000   0.000000   0.000000   0.000000   0.000000
    17  H    0.000000   0.000000   0.000000   0.000000   0.000000   0.000000
    18  H    0.000000   0.000000   0.000000   0.000000   0.000000   0.000000
    19  C    0.000000   0.000000   0.000000   0.000000   0.000000   0.000000
    20  C    0.000000   0.000000   0.000000   0.000000   0.000000   0.000000
    21  C    0.000000   0.000000   0.000000   0.000000   0.000000   0.000000
    22  C    0.000000   0.000000   0.000000   0.000000   0.000000   0.000000
    23  C    0.000000   0.000000   0.000000   0.000000   0.000000   0.000000
    24  C    0.000000   0.000000   0.000000   0.000000   0.000000   0.000000
    25  H    0.968202   0.000000   0.000000   0.000000   0.000000   0.000000
    26  H    0.000000   0.967661   0.000000   0.000000   0.000000   0.000000
    27  H    0.000000   0.000000   0.968203   0.000000   0.000000   0.000000
    28  C    0.000000   0.000000   0.000000   4.037183   0.000000   0.000000
    29  C    0.000000   0.000000   0.000000   0.000000   4.037184   0.000000
    30  H    0.000000   0.000000   0.000000   0.000000   0.000000   0.968205
    31  H    0.000000   0.000000   0.000000   0.000000   0.000000   0.000000
    32  C    0.000000   0.000000   0.000000   0.000000   0.000000   0.000000
    33  C    0.000000   0.000000   0.000000   0.000000   0.000000   0.000000
    34  H    0.000000   0.000000   0.000000   0.000000   0.000000   0.000000
    35  H    0.000000   0.000000   0.000000   0.000000   0.000000   0.000000
    36  H    0.000000   0.000000   0.000000   0.000000   0.000000   0.000000
             31         32         33         34         35         36
     1  C    0.000000   0.000000   0.000000   0.000000   0.000000   0.000000
     2  C    0.000000   0.000000   0.000000   0.000000   0.000000   0.000000
     3  C    0.000000   0.000000   0.000000   0.000000   0.000000   0.000000
     4  C    0.000000   0.000000   0.000000   0.000000   0.000000   0.000000
     5  C    0.000000   0.000000   0.000000   0.000000   0.000000   0.000000
     6  C    0.000000   0.000000   0.000000   0.000000   0.000000   0.000000
     7  H    0.000000   0.000000   0.000000   0.000000   0.000000   0.000000
     8  H    0.000000   0.000000   0.000000   0.000000   0.000000   0.000000
     9  H    0.000000   0.000000   0.000000   0.000000   0.000000   0.000000
    10  C    0.000000   0.000000   0.000000   0.000000   0.000000   0.000000
    11  C    0.000000   0.000000   0.000000   0.000000   0.000000   0.000000
    12  H    0.000000   0.000000   0.000000   0.000000   0.000000   0.000000
    13  H    0.000000   0.000000   0.000000   0.000000   0.000000   0.000000
    14  C    0.000000   0.000000   0.000000   0.000000   0.000000   0.000000
    15  C    0.000000   0.000000   0.000000   0.000000   0.000000   0.000000
    16  H    0.000000   0.000000   0.000000   0.000000   0.000000   0.000000
    17  H    0.000000   0.000000   0.000000   0.000000   0.000000   0.000000
    18  H    0.000000   0.000000   0.000000   0.000000   0.000000   0.000000
    19  C    0.000000   0.000000   0.000000   0.000000   0.000000   0.000000
    20  C    0.000000   0.000000   0.000000   0.000000   0.000000   0.000000
    21  C    0.000000   0.000000   0.000000   0.000000   0.000000   0.000000
    22  C    0.000000   0.000000   0.000000   0.000000   0.000000   0.000000
    23  C    0.000000   0.000000   0.000000   0.000000   0.000000   0.000000
    24  C    0.000000   0.000000   0.000000   0.000000   0.000000   0.000000
    25  H    0.000000   0.000000   0.000000   0.000000   0.000000   0.000000
    26  H    0.000000   0.000000   0.000000   0.000000   0.000000   0.000000
    27  H    0.000000   0.000000   0.000000   0.000000   0.000000   0.000000
    28  C    0.000000   0.000000   0.000000   0.000000   0.000000   0.000000
    29  C    0.000000   0.000000   0.000000   0.000000   0.000000   0.000000
    30  H    0.000000   0.000000   0.000000   0.000000   0.000000   0.000000
    31  H    0.967658   0.000000   0.000000   0.000000   0.000000   0.000000
    32  C    0.000000   4.034657   0.000000   0.000000   0.000000   0.000000
    33  C    0.000000   0.000000   4.034660   0.000000   0.000000   0.000000
    34  H    0.000000   0.000000   0.000000   0.968203   0.000000   0.000000
    35  H    0.000000   0.000000   0.000000   0.000000   0.967661   0.000000
    36  H    0.000000   0.000000   0.000000   0.000000   0.000000   0.967662
 Mulliken atomic charges:
              1
     1  C   -0.034657
     2  C   -0.037185
     3  C    0.015414
     4  C    0.015414
     5  C   -0.037183
     6  C   -0.034662
     7  H    0.031798
     8  H    0.032339
     9  H    0.031797
    10  C   -0.037183
    11  C   -0.037184
    12  H    0.031795
    13  H    0.032342
    14  C   -0.034657
    15  C   -0.034660
    16  H    0.031797
    17  H    0.032339
    18  H    0.032338
    19  C   -0.034657
    20  C   -0.037185
    21  C    0.015414
    22  C    0.015414
    23  C   -0.037183
    24  C   -0.034662
    25  H    0.031798
    26  H    0.032339
    27  H    0.031797
    28  C   -0.037183
    29  C   -0.037184
    30  H    0.031795
    31  H    0.032342
    32  C   -0.034657
    33  C   -0.034660
    34  H    0.031797
    35  H    0.032339
    36  H    0.032338
 Sum of Mulliken charges=   0.00000
 Atomic charges with hydrogens summed into heavy atoms:
              1
     1  C   -0.002319
     2  C   -0.005388
     3  C    0.015414
     4  C    0.015414
     5  C   -0.005388
     6  C   -0.002320
     7  H    0.000000
     8  H    0.000000
     9  H    0.000000
    10  C   -0.005386
    11  C   -0.005387
    12  H    0.000000
    13  H    0.000000
    14  C   -0.002318
    15  C   -0.002322
    16  H    0.000000
    17  H    0.000000
    18  H    0.000000
    19  C   -0.002319
    20  C   -0.005388
    21  C    0.015414
    22  C    0.015414
    23  C   -0.005388
    24  C   -0.002320
    25  H    0.000000
    26  H    0.000000
    27  H    0.000000
    28  C   -0.005386
    29  C   -0.005387
    30  H    0.000000
    31  H    0.000000
    32  C   -0.002318
    33  C   -0.002322
    34  H    0.000000
    35  H    0.000000
    36  H    0.000000
 Sum of Mulliken charges=   0.00000
 Electronic spatial extent (au):  <R**2>=  8996.8123
 Charge=   -61.4286 electrons
 Dipole moment (field-independent basis, Debye):
    X=     0.0009    Y=     0.0003    Z=  -663.8719  Tot=   663.8719
 Quadrupole moment (field-independent basis, Debye-Ang):
   XX= -1240.1783   YY=  -646.1988   ZZ= -3182.7234
   XY=    -0.0017   XZ=     0.0020   YZ=     0.0007
 Traceless Quadrupole moment (field-independent basis, Debye-Ang):
   XX=   449.5219   YY=  1043.5014   ZZ= -1493.0233
   XY=    -0.0017   XZ=     0.0020   YZ=     0.0007
 Octapole moment (field-independent basis, Debye-Ang**2):
  XXX=     0.0094  YYY=     0.0027  ZZZ=-14761.6801  XYY=     0.0002
  XXY=    -0.0004  XXZ= -2790.4011  XZZ=     0.0091  YZZ=     0.0035
  YYZ= -1453.9472  XYZ=    -0.0038
 Hexadecapole moment (field-independent basis, Debye-Ang**3):
 XXXX=-10918.6290 YYYY= -3170.9981 ZZZZ=-72537.6133 XXXY=    -0.0170
 XXXZ=     0.0212 YYYX=    -0.0090 YYYZ=     0.0062 ZZZX=     0.0415
 ZZZY=     0.0162 XXYY= -2231.2824 XXZZ=-13282.6996 YYZZ= -6881.6320
 XXYZ=    -0.0010 YYXZ=     0.0005 ZZXY=    -0.0184
 N-N= 5.321290415268D+02 E-N= 0.000000000000D+00  KE=-1.238349988278D+03

 Test job not archived.
 1\1\GINC-RHUBARB\SP\RZINDO\STO-3G\C20H16\JK905\10-Oct-2007\0\\# ZINDO 
 PUNCH=MO IOP(3/33=1) NOSYMM\\04/10/07: Geometry from napthalene_b3lyp_
 of.log and reorientated to put long axi geometric centre on origin.\\0
 ,1\C,0,-2.4336,-0.70848,0.\C,0,-1.24478,-1.40258,0.\C,0,-0.0000018091,
 -0.716892,0.\C,0,0.0000023856,0.716891,0.\C,0,-1.24476,1.40257,0.\C,0,
 -2.4336,0.708481,0.\H,0,1.24204,-2.49027,0.\H,0,-3.37834,-1.24559,0.\H
 ,0,-1.24204,-2.49028,0.\C,0,1.24476,-1.40258,0.\C,0,1.24478,1.40258,0.
 \H,0,-1.24204,2.49027,0.\H,0,-3.37833,1.24559,0.\C,0,2.4336,0.708481,0
 .\C,0,2.43359,-0.70848,0.\H,0,1.24203,2.49028,0.\H,0,3.37835,1.24559,0
 .\H,0,3.37834,-1.24559,0.\C,0,-2.4336,-0.70848,4.5\C,0,-1.24478,-1.402
 58,4.5\C,0,-0.0000018091,-0.716892,4.5\C,0,0.0000023856,0.716891,4.5\C
 ,0,-1.24476,1.40257,4.5\C,0,-2.4336,0.708481,4.5\H,0,1.24204,-2.49027,
 4.5\H,0,-3.37834,-1.24559,4.5\H,0,-1.24204,-2.49028,4.5\C,0,1.24476,-1
 .40258,4.5\C,0,1.24478,1.40258,4.5\H,0,-1.24204,2.49027,4.5\H,0,-3.378
 33,1.24559,4.5\C,0,2.4336,0.708481,4.5\C,0,2.43359,-0.70848,4.5\H,0,1.
 24203,2.49028,4.5\H,0,3.37835,1.24559,4.5\H,0,3.37834,-1.24559,4.5\\Ve
 rsion=x86_64-Linux-G03RevB.05\HF=-123.354287\RMSD=1.354e-09\PG=CS [X(C
 20H16)]\\@


 THERE IS MORE TO LIFE THAN INCREASING ITS SPEED.

                                       -- GANDHI
 Job cpu time:  0 days  0 hours  0 minutes  4.1 seconds.
 File lengths (MBytes):  RWF=     36 Int=      0 D2E=      0 Chk=     11 Scr=      1
 Normal termination of Gaussian 03 at Wed Oct 10 10:14:52 2007.
