 Entering Gaussian System, Link 0=g03
 Input=4_pair.com
 Output=4_pair.log
 Initial command:
 /usr/local/g03/l1.exe /export/home/joe2/code/svnJ/J_from_g03/examples/naphthalene_zindo/Gau-12546.inp -scrdir=/export/home/joe2/code/svnJ/J_from_g03/examples/naphthalene_zindo/
 Entering Link 1 = /usr/local/g03/l1.exe PID=     12547.
  
 Copyright (c) 1988,1990,1992,1993,1995,1998,2003, Gaussian, Inc.
                  All Rights Reserved.
  
 This is the Gaussian(R) 03 program.  It is based on the
 the Gaussian(R) 98 system (copyright 1998, Gaussian, Inc.),
 the Gaussian(R) 94 system (copyright 1995, Gaussian, Inc.),
 the Gaussian 92(TM) system (copyright 1992, Gaussian, Inc.),
 the Gaussian 90(TM) system (copyright 1990, Gaussian, Inc.),
 the Gaussian 88(TM) system (copyright 1988, Gaussian, Inc.),
 the Gaussian 86(TM) system (copyright 1986, Carnegie Mellon
 University), and the Gaussian 82(TM) system (copyright 1983,
 Carnegie Mellon University). Gaussian is a federally registered
 trademark of Gaussian, Inc.
  
 This software contains proprietary and confidential information,
 including trade secrets, belonging to Gaussian, Inc.
  
 This software is provided under written license and may be
 used, copied, transmitted, or stored only in accord with that
 written license.
  
 The following legend is applicable only to US Government
 contracts under DFARS:
  
                    RESTRICTED RIGHTS LEGEND
  
 Use, duplication or disclosure by the US Government is subject
 to restrictions as set forth in subparagraph (c)(1)(ii) of the
 Rights in Technical Data and Computer Software clause at DFARS
 252.227-7013.
  
 Gaussian, Inc.
 Carnegie Office Park, Building 6, Pittsburgh, PA 15106 USA
  
 The following legend is applicable only to US Government
 contracts under FAR:
  
                    RESTRICTED RIGHTS LEGEND
  
 Use, reproduction and disclosure by the US Government is subject
 to restrictions as set forth in subparagraph (c) of the
 Commercial Computer Software - Restricted Rights clause at FAR
 52.227-19.
  
 Gaussian, Inc.
 Carnegie Office Park, Building 6, Pittsburgh, PA 15106 USA
  
  
 ---------------------------------------------------------------
 Warning -- This program may not be used in any manner that
 competes with the business of Gaussian, Inc. or will provide
 assistance to any competitor of Gaussian, Inc.  The licensee
 of this program is prohibited from giving any competitor of
 Gaussian, Inc. access to this program.  By using this program,
 the user acknowledges that Gaussian, Inc. is engaged in the
 business of creating and licensing software in the field of
 computational chemistry and represents and warrants to the
 licensee that it is not a competitor of Gaussian, Inc. and that
 it will not use this program in any manner prohibited above.
 ---------------------------------------------------------------
  

 Cite this work as:
 Gaussian 03, Revision B.05,
 M. J. Frisch, G. W. Trucks, H. B. Schlegel, G. E. Scuseria, 
 M. A. Robb, J. R. Cheeseman, J. A. Montgomery, Jr., T. Vreven, 
 K. N. Kudin, J. C. Burant, J. M. Millam, S. S. Iyengar, J. Tomasi, 
 V. Barone, B. Mennucci, M. Cossi, G. Scalmani, N. Rega, 
 G. A. Petersson, H. Nakatsuji, M. Hada, M. Ehara, K. Toyota, 
 R. Fukuda, J. Hasegawa, M. Ishida, T. Nakajima, Y. Honda, O. Kitao, 
 H. Nakai, M. Klene, X. Li, J. E. Knox, H. P. Hratchian, J. B. Cross, 
 C. Adamo, J. Jaramillo, R. Gomperts, R. E. Stratmann, O. Yazyev, 
 A. J. Austin, R. Cammi, C. Pomelli, J. W. Ochterski, P. Y. Ayala, 
 K. Morokuma, G. A. Voth, P. Salvador, J. J. Dannenberg, 
 V. G. Zakrzewski, S. Dapprich, A. D. Daniels, M. C. Strain, 
 O. Farkas, D. K. Malick, A. D. Rabuck, K. Raghavachari, 
 J. B. Foresman, J. V. Ortiz, Q. Cui, A. G. Baboul, S. Clifford, 
 J. Cioslowski, B. B. Stefanov, G. Liu, A. Liashenko, P. Piskorz, 
 I. Komaromi, R. L. Martin, D. J. Fox, T. Keith, M. A. Al-Laham, 
 C. Y. Peng, A. Nanayakkara, M. Challacombe, P. M. W. Gill, 
 B. Johnson, W. Chen, M. W. Wong, C. Gonzalez, and J. A. Pople, 
 Gaussian, Inc., Pittsburgh PA, 2003.
 
 *************************************************
 Gaussian 03:  x86_64-Linux-G03RevB.05  8-Nov-2003
                    10-Oct-2007 
 *************************************************
 -----------------------------------
 # zindo punch=mo iop(3/33=1) nosymm
 -----------------------------------
 1/30=1,38=1/1;
 2/15=1,17=6,18=5,40=1/2;
 3/5=2,12=3,16=1,25=1,33=1,41=400000/1,2,8,3;
 4/5=3,11=1,35=1/1;
 5/5=2,35=1,38=5/2;
 8/6=1/1;
 9/42=1,49=10/14;
 6/7=2,8=2,9=2,10=2/1;
 99/5=1,9=1,10=32/99;
 ----------------------------------------------------------------------
 04/10/07: Geometry from napthalene_b3lyp_of.log and reorientated to pu
 t long axi geometric centre on origin.
 ----------------------------------------------------------------------
 Symbolic Z-matrix:
 Charge =  0 Multiplicity = 1
 C                    -2.4336   -0.70848   0. 
 C                    -1.24478  -1.40258   0. 
 C                    0.        -0.71689   0. 
 C                     0.        0.71689   0. 
 C                    -1.24476   1.40257   0. 
 C                    -2.4336    0.70848   0. 
 H                     1.24204  -2.49027   0. 
 H                    -3.37834  -1.24559   0. 
 H                    -1.24204  -2.49028   0. 
 C                     1.24476  -1.40258   0. 
 C                     1.24478   1.40258   0. 
 H                    -1.24204   2.49027   0. 
 H                    -3.37833   1.24559   0. 
 C                     2.4336    0.70848   0. 
 C                     2.43359  -0.70848   0. 
 H                     1.24203   2.49028   0. 
 H                     3.37835   1.24559   0. 
 H                     3.37834  -1.24559   0. 
 C                    -2.4336   -0.70848   4. 
 C                    -1.24478  -1.40258   4. 
 C                    0.        -0.71689   4. 
 C                     0.        0.71689   4. 
 C                    -1.24476   1.40257   4. 
 C                    -2.4336    0.70848   4. 
 H                     1.24204  -2.49027   4. 
 H                    -3.37834  -1.24559   4. 
 H                    -1.24204  -2.49028   4. 
 C                     1.24476  -1.40258   4. 
 C                     1.24478   1.40258   4. 
 H                    -1.24204   2.49027   4. 
 H                    -3.37833   1.24559   4. 
 C                     2.4336    0.70848   4. 
 C                     2.43359  -0.70848   4. 
 H                     1.24203   2.49028   4. 
 H                     3.37835   1.24559   4. 
 H                     3.37834  -1.24559   4. 
 
                          Input orientation:                          
 ---------------------------------------------------------------------
 Center     Atomic     Atomic              Coordinates (Angstroms)
 Number     Number      Type              X           Y           Z
 ---------------------------------------------------------------------
    1          6             0       -2.433600   -0.708480    0.000000
    2          6             0       -1.244780   -1.402580    0.000000
    3          6             0       -0.000002   -0.716892    0.000000
    4          6             0        0.000002    0.716891    0.000000
    5          6             0       -1.244760    1.402570    0.000000
    6          6             0       -2.433600    0.708481    0.000000
    7          1             0        1.242040   -2.490270    0.000000
    8          1             0       -3.378340   -1.245590    0.000000
    9          1             0       -1.242040   -2.490280    0.000000
   10          6             0        1.244760   -1.402580    0.000000
   11          6             0        1.244780    1.402580    0.000000
   12          1             0       -1.242040    2.490270    0.000000
   13          1             0       -3.378330    1.245590    0.000000
   14          6             0        2.433600    0.708481    0.000000
   15          6             0        2.433590   -0.708480    0.000000
   16          1             0        1.242030    2.490280    0.000000
   17          1             0        3.378350    1.245590    0.000000
   18          1             0        3.378340   -1.245590    0.000000
   19          6             0       -2.433600   -0.708480    4.000000
   20          6             0       -1.244780   -1.402580    4.000000
   21          6             0       -0.000002   -0.716892    4.000000
   22          6             0        0.000002    0.716891    4.000000
   23          6             0       -1.244760    1.402570    4.000000
   24          6             0       -2.433600    0.708481    4.000000
   25          1             0        1.242040   -2.490270    4.000000
   26          1             0       -3.378340   -1.245590    4.000000
   27          1             0       -1.242040   -2.490280    4.000000
   28          6             0        1.244760   -1.402580    4.000000
   29          6             0        1.244780    1.402580    4.000000
   30          1             0       -1.242040    2.490270    4.000000
   31          1             0       -3.378330    1.245590    4.000000
   32          6             0        2.433600    0.708481    4.000000
   33          6             0        2.433590   -0.708480    4.000000
   34          1             0        1.242030    2.490280    4.000000
   35          1             0        3.378350    1.245590    4.000000
   36          1             0        3.378340   -1.245590    4.000000
 ---------------------------------------------------------------------
                    Distance matrix (angstroms):
                    1          2          3          4          5
     1  C    0.000000
     2  C    1.376615   0.000000
     3  C    2.433613   1.421141   0.000000
     4  C    2.820302   2.457975   1.433783   0.000000
     5  C    2.422782   2.805150   2.457955   1.421122   0.000000
     6  C    1.416961   2.422782   2.820299   2.433617   1.376626
     7  H    4.084741   2.714285   2.165072   3.439264   4.619348
     8  H    1.086748   2.139328   3.419458   3.906985   3.400723
     9  H    2.143508   1.087703   2.165078   3.439275   3.892851
    10  C    3.743275   2.489540   1.421126   2.457962   3.750543
    11  C    4.241115   3.750578   2.457975   1.421141   2.489540
    12  H    3.413476   3.892851   3.439265   2.165073   1.087703
    13  H    2.170462   3.400712   3.906973   3.419452   2.139337
    14  C    5.069262   4.241115   2.820302   2.433612   3.743273
    15  C    4.867190   3.743285   2.433606   2.820289   4.241084
    16  H    4.872609   4.619370   3.439272   2.165073   2.714266
    17  H    6.131652   5.327864   3.906993   3.419467   4.625774
    18  H    5.836706   4.625785   3.419461   3.906981   5.327833
    19  C    4.000000   4.230256   4.682144   4.894293   4.676524
    20  C    4.230256   4.000000   4.244955   4.694853   4.885577
    21  C    4.682144   4.244955   4.000000   4.249204   4.694842
    22  C    4.894293   4.694853   4.249204   4.000000   4.244949
    23  C    4.676524   4.885577   4.694842   4.244949   4.000000
    24  C    4.243557   4.676523   4.894291   4.682146   4.230260
    25  H    5.717089   4.833978   4.548355   5.275276   6.110514
    26  H    4.144999   4.536157   5.262384   5.591469   5.250230
    27  H    4.538130   4.145250   4.548358   5.275283   5.581603
    28  C    5.478331   4.711455   4.244950   4.694846   5.483300
    29  C    5.829842   5.483323   4.694853   4.244955   4.711455
    30  H    5.258499   5.581603   5.275277   4.548356   4.145250
    31  H    4.550923   5.250223   5.591461   5.262381   4.536162
    32  C    6.457354   5.829842   4.894293   4.682144   5.478329
    33  C    6.299963   5.478337   4.682141   4.894286   5.829819
    34  H    6.304151   6.110530   5.275282   4.548356   4.833967
    35  H    7.321008   6.662292   5.591475   5.262391   6.115373
    36  H    7.075813   6.115381   5.262387   5.591466   6.662267
                    6          7          8          9         10
     6  C    0.000000
     7  H    4.872611   0.000000
     8  H    2.170467   4.785096   0.000000
     9  H    3.413486   2.484080   2.472454   0.000000
    10  C    4.241098   1.087693   4.625765   2.714271   0.000000
    11  C    3.743294   3.892851   5.327855   4.619376   2.805160
    12  H    2.143499   5.565648   4.303537   4.980550   4.619357
    13  H    1.086739   5.941756   2.491180   4.303540   5.327829
    14  C    4.867200   3.413477   6.131643   4.872618   2.422792
    15  C    5.069252   2.143494   5.836696   4.084736   1.376623
    16  H    4.084735   4.980550   5.941763   5.565661   3.892861
    17  H    5.836716   4.303542   7.201308   5.941778   3.400737
    18  H    6.131643   2.472449   6.756680   4.785098   2.139348
    19  C    4.243557   5.717089   4.144999   4.538130   5.478331
    20  C    4.676523   4.833978   4.536157   4.145250   4.711455
    21  C    4.894291   4.548355   5.262384   4.548358   4.244950
    22  C    4.682146   5.275276   5.591469   5.275283   4.694846
    23  C    4.230260   6.110514   5.250230   5.581603   5.483300
    24  C    4.000000   6.304152   4.550926   5.258506   5.829829
    25  H    6.304152   4.000000   6.236757   4.708572   4.145248
    26  H    4.550926   6.236757   4.000000   4.702449   6.115366
    27  H    5.258506   4.708572   4.702449   4.000000   4.833970
    28  C    5.829829   4.145248   6.115366   4.833970   4.000000
    29  C    5.478344   5.581603   6.662285   6.110535   4.885583
    30  H    4.538126   6.853936   5.875409   6.387948   6.110520
    31  H    4.144997   7.162714   4.712322   5.875411   6.662264
    32  C    6.299971   5.258500   7.321000   6.304157   4.676529
    33  C    6.457346   4.538124   7.075805   5.717086   4.230259
    34  H    5.717085   6.387948   7.162719   6.853946   5.581610
    35  H    7.075821   5.875412   8.237648   7.162732   5.250239
    36  H    7.321000   4.702447   7.851925   6.236759   4.536167
                   11         12         13         14         15
    11  C    0.000000
    12  H    2.714285   0.000000
    13  H    4.625775   2.472441   0.000000
    14  C    1.376614   4.084740   5.836696   0.000000
    15  C    2.422776   4.872603   6.131623   1.416961   0.000000
    16  H    1.087703   2.484070   4.785079   2.143513   3.413485
    17  H    2.139338   4.785105   6.756680   1.086756   2.170475
    18  H    3.400718   5.941764   7.201289   2.170467   1.086757
    19  C    5.829842   5.258499   4.550923   6.457354   6.299963
    20  C    5.483323   5.581603   5.250223   5.829842   5.478337
    21  C    4.694853   5.275277   5.591461   4.894293   4.682141
    22  C    4.244955   4.548356   5.262381   4.682144   4.894286
    23  C    4.711455   4.145250   4.536162   5.478329   5.829819
    24  C    5.478344   4.538126   4.144997   6.299971   6.457346
    25  H    5.581603   6.853936   7.162714   5.258500   4.538124
    26  H    6.662285   5.875409   4.712322   7.321000   7.075805
    27  H    6.110535   6.387948   5.875411   6.304157   5.717086
    28  C    4.885583   6.110520   6.662264   4.676529   4.230259
    29  C    4.000000   4.833978   6.115373   4.230256   4.676520
    30  H    4.833978   4.000000   4.702442   5.717089   6.304146
    31  H    6.115373   4.702442   4.000000   7.075805   7.320984
    32  C    4.230256   5.717089   7.075805   4.000000   4.243557
    33  C    4.676520   6.304146   7.320984   4.243557   4.000000
    34  H    4.145250   4.708567   6.236744   4.538133   5.258506
    35  H    4.536162   6.236765   7.851925   4.145002   4.550930
    36  H    5.250227   7.162720   8.237631   4.550926   4.145002
                   16         17         18         19         20
    16  H    0.000000
    17  H    2.472472   0.000000
    18  H    4.303550   2.491180   0.000000
    19  C    6.304151   7.321008   7.075813   0.000000
    20  C    6.110530   6.662292   6.115381   1.376615   0.000000
    21  C    5.275282   5.591475   5.262387   2.433613   1.421141
    22  C    4.548356   5.262391   5.591466   2.820302   2.457975
    23  C    4.833967   6.115373   6.662267   2.422782   2.805150
    24  C    5.717085   7.075821   7.321000   1.416961   2.422782
    25  H    6.387948   5.875412   4.702447   4.084741   2.714285
    26  H    7.162719   8.237648   7.851925   1.086748   2.139328
    27  H    6.853946   7.162732   6.236759   2.143508   1.087703
    28  C    5.581610   5.250239   4.536167   3.743275   2.489540
    29  C    4.145250   4.536162   5.250227   4.241115   3.750578
    30  H    4.708567   6.236765   7.162720   3.413476   3.892851
    31  H    6.236744   7.851925   8.237631   2.170462   3.400712
    32  C    4.538133   4.145002   4.550926   5.069262   4.241115
    33  C    5.258506   4.550930   4.145002   4.867190   3.743285
    34  H    4.000000   4.702459   5.875419   4.872609   4.619370
    35  H    4.702459   4.000000   4.712322   6.131652   5.327864
    36  H    5.875419   4.712322   4.000000   5.836706   4.625785
                   21         22         23         24         25
    21  C    0.000000
    22  C    1.433783   0.000000
    23  C    2.457955   1.421122   0.000000
    24  C    2.820299   2.433617   1.376626   0.000000
    25  H    2.165072   3.439264   4.619348   4.872611   0.000000
    26  H    3.419458   3.906985   3.400723   2.170467   4.785096
    27  H    2.165078   3.439275   3.892851   3.413486   2.484080
    28  C    1.421126   2.457962   3.750543   4.241098   1.087693
    29  C    2.457975   1.421141   2.489540   3.743294   3.892851
    30  H    3.439265   2.165073   1.087703   2.143499   5.565648
    31  H    3.906973   3.419452   2.139337   1.086739   5.941756
    32  C    2.820302   2.433612   3.743273   4.867200   3.413477
    33  C    2.433606   2.820289   4.241084   5.069252   2.143494
    34  H    3.439272   2.165073   2.714266   4.084735   4.980550
    35  H    3.906993   3.419467   4.625774   5.836716   4.303542
    36  H    3.419461   3.906981   5.327833   6.131643   2.472449
                   26         27         28         29         30
    26  H    0.000000
    27  H    2.472454   0.000000
    28  C    4.625765   2.714271   0.000000
    29  C    5.327855   4.619376   2.805160   0.000000
    30  H    4.303537   4.980550   4.619357   2.714285   0.000000
    31  H    2.491180   4.303540   5.327829   4.625775   2.472441
    32  C    6.131643   4.872618   2.422792   1.376614   4.084740
    33  C    5.836696   4.084736   1.376623   2.422776   4.872603
    34  H    5.941763   5.565661   3.892861   1.087703   2.484070
    35  H    7.201308   5.941778   3.400737   2.139338   4.785105
    36  H    6.756680   4.785098   2.139348   3.400718   5.941764
                   31         32         33         34         35
    31  H    0.000000
    32  C    5.836696   0.000000
    33  C    6.131623   1.416961   0.000000
    34  H    4.785079   2.143513   3.413485   0.000000
    35  H    6.756680   1.086756   2.170475   2.472472   0.000000
    36  H    7.201289   2.170467   1.086757   4.303550   2.491180
                   36
    36  H    0.000000
 Symmetry turned off by external request.
 Stoichiometry    C20H16
 Framework group  CS[X(C20H16)]
 Deg. of freedom    51
 Full point group                 CS      NOp   2
 Rotational constants (GHZ):      0.4410042      0.3747104      0.2737318
 Standard basis: VSTO-6G (5D, 7F)
                         Coordinates in L301:                         
 ---------------------------------------------------------------------
 Center     Atomic     Atomic              Coordinates (Angstroms)
 Number     Number      Type              X           Y           Z
 ---------------------------------------------------------------------
    1          6             0       -2.433600   -0.708480    0.000000
    2          6             0       -1.244780   -1.402580    0.000000
    3          6             0       -0.000002   -0.716892    0.000000
    4          6             0        0.000002    0.716891    0.000000
    5          6             0       -1.244760    1.402570    0.000000
    6          6             0       -2.433600    0.708481    0.000000
    7          1             0        1.242040   -2.490270    0.000000
    8          1             0       -3.378340   -1.245590    0.000000
    9          1             0       -1.242040   -2.490280    0.000000
   10          6             0        1.244760   -1.402580    0.000000
   11          6             0        1.244780    1.402580    0.000000
   12          1             0       -1.242040    2.490270    0.000000
   13          1             0       -3.378330    1.245590    0.000000
   14          6             0        2.433600    0.708481    0.000000
   15          6             0        2.433590   -0.708480    0.000000
   16          1             0        1.242030    2.490280    0.000000
   17          1             0        3.378350    1.245590    0.000000
   18          1             0        3.378340   -1.245590    0.000000
   19          6             0       -2.433600   -0.708480    4.000000
   20          6             0       -1.244780   -1.402580    4.000000
   21          6             0       -0.000002   -0.716892    4.000000
   22          6             0        0.000002    0.716891    4.000000
   23          6             0       -1.244760    1.402570    4.000000
   24          6             0       -2.433600    0.708481    4.000000
   25          1             0        1.242040   -2.490270    4.000000
   26          1             0       -3.378340   -1.245590    4.000000
   27          1             0       -1.242040   -2.490280    4.000000
   28          6             0        1.244760   -1.402580    4.000000
   29          6             0        1.244780    1.402580    4.000000
   30          1             0       -1.242040    2.490270    4.000000
   31          1             0       -3.378330    1.245590    4.000000
   32          6             0        2.433600    0.708481    4.000000
   33          6             0        2.433590   -0.708480    4.000000
   34          1             0        1.242030    2.490280    4.000000
   35          1             0        3.378350    1.245590    4.000000
   36          1             0        3.378340   -1.245590    4.000000
 ---------------------------------------------------------------------
 LdAtmC:  AtmChg=     4.000000     4.000000     4.000000     4.000000     4.000000
 LdAtmC:  AtmChg=     4.000000     1.000000     1.000000     1.000000     4.000000
 LdAtmC:  AtmChg=     4.000000     1.000000     1.000000     4.000000     4.000000
 LdAtmC:  AtmChg=     1.000000     1.000000     1.000000     4.000000     4.000000
 LdAtmC:  AtmChg=     4.000000     4.000000     4.000000     4.000000     1.000000
 LdAtmC:  AtmChg=     1.000000     1.000000     4.000000     4.000000     1.000000
 LdAtmC:  AtmChg=     1.000000     4.000000     4.000000     1.000000     1.000000
 LdAtmC:  AtmChg=     1.000000
 AtZEff=  -3.9000000  -3.9000000  -3.9000000  -3.9000000  -3.9000000  -3.9000000  -1.0000000  -1.0000000  -1.0000000  -3.9000000
 AtZEff=  -3.9000000  -1.0000000  -1.0000000  -3.9000000  -3.9000000  -1.0000000  -1.0000000  -1.0000000  -3.9000000  -3.9000000
 AtZEff=  -3.9000000  -3.9000000  -3.9000000  -3.9000000  -1.0000000  -1.0000000  -1.0000000  -3.9000000  -3.9000000  -1.0000000
 AtZEff=  -1.0000000  -3.9000000  -3.9000000  -1.0000000  -1.0000000  -1.0000000
 Integral buffers will be    131072 words long.
 Regular integral format.
 Two-electron integral symmetry is turned off.
    96 basis functions,   576 primitive gaussians,    96 cartesian basis functions
    48 alpha electrons       48 beta electrons
       nuclear repulsion energy       698.0660475615 Hartrees.
 Do NDO integrals.
 NPDir=0 NMtPBC=     1 NCelOv=     1 NCel=       1 NClECP=     1 NCelD=      1
         NCelK=      1 NCelE2=     1 NClLst=     1 CellRange=     0.0.
 One-electron integrals computed using PRISM.
 Entering OneElI...
 Calculate overlap and kinetic energy integrals
    NBasis =  96  MinDer = 0  MaxDer = 0
 Requested accuracy = 0.1000D-12
 PrsmSu:  NPrtUS=   1 ThrOK=F
 PRISM was handed     5660502 working-precision words and  1596 shell-pairs
 *** Overlap *** 
                1             2             3             4             5
      1  0.100000D+01
      2  0.000000D+00  0.100000D+01
      3  0.000000D+00  0.000000D+00  0.100000D+01
      4  0.000000D+00  0.000000D+00  0.000000D+00  0.100000D+01
      5  0.418191D+00  0.363502D+00 -0.212233D+00  0.000000D+00  0.100000D+01
      6 -0.363502D+00 -0.180916D+00  0.253964D+00  0.000000D+00  0.000000D+00
      7  0.212233D+00  0.253964D+00  0.105782D+00  0.000000D+00  0.000000D+00
      8  0.000000D+00  0.000000D+00  0.000000D+00  0.254061D+00  0.000000D+00
      9  0.846391D-01  0.110523D+00 -0.382034D-03  0.000000D+00  0.396101D+00
     10 -0.110523D+00 -0.138570D+00  0.594126D-03  0.000000D+00 -0.355765D+00
     11  0.382034D-03  0.594126D-03  0.333092D-01  0.000000D+00 -0.195974D+00
     12  0.000000D+00  0.000000D+00  0.000000D+00  0.333113D-01  0.000000D+00
     13  0.416121D-01  0.490741D-01  0.287429D-01  0.000000D+00  0.810676D-01
     14 -0.490741D-01 -0.527411D-01 -0.393103D-01  0.000000D+00 -0.537875D-01
     15 -0.287429D-01 -0.393103D-01 -0.864900D-02  0.000000D+00 -0.915831D-01
     16  0.000000D+00  0.000000D+00  0.000000D+00  0.143752D-01  0.000000D+00
     17  0.862706D-01  0.551960D-01  0.980127D-01  0.000000D+00  0.428279D-01
     18 -0.551960D-01 -0.801020D-02 -0.747485D-01  0.000000D+00  0.000000D+00
     19 -0.980127D-01 -0.747485D-01 -0.986481D-01  0.000000D+00 -0.584429D-01
     20  0.000000D+00  0.000000D+00  0.000000D+00  0.340845D-01  0.000000D+00
     21  0.398147D+00  0.000000D+00  0.407575D+00  0.000000D+00  0.862707D-01
     22  0.000000D+00  0.237410D+00  0.000000D+00  0.000000D+00  0.551950D-01
     23 -0.407575D+00  0.000000D+00 -0.331866D+00  0.000000D+00 -0.980133D-01
     24  0.000000D+00  0.000000D+00  0.000000D+00  0.237410D+00  0.000000D+00
     25  0.333994D-02  0.419336D-02 -0.203276D-02  0.000000D+00  0.460693D-01
     26  0.520724D+00 -0.425568D+00 -0.241947D+00  0.000000D+00  0.122081D+00
     27  0.121262D+00  0.818767D-01 -0.122434D+00  0.000000D+00  0.520189D+00
     28  0.632579D-02  0.913905D-02 -0.172452D-02  0.000000D+00  0.766371D-01
     29 -0.913905D-02 -0.130801D-01  0.278265D-02  0.000000D+00 -0.100826D+00
     30  0.172452D-02  0.278265D-02  0.114141D-02  0.000000D+00  0.000000D+00
     31  0.000000D+00  0.000000D+00  0.000000D+00  0.166649D-02  0.000000D+00
     32  0.207463D-02  0.271691D-02  0.155926D-02  0.000000D+00  0.622624D-02
     33 -0.271691D-02 -0.344846D-02 -0.225274D-02  0.000000D+00 -0.607896D-02
     34 -0.155926D-02 -0.225274D-02 -0.816083D-03  0.000000D+00 -0.684958D-02
     35  0.000000D+00  0.000000D+00  0.000000D+00  0.476789D-03  0.000000D+00
     36  0.126733D-01  0.593732D-02  0.159388D-01  0.000000D+00  0.493725D-02
     37  0.116094D+00 -0.615787D-01  0.127369D+00  0.000000D+00  0.129872D-01
     38  0.279191D-03  0.415846D-03  0.121063D-03  0.000000D+00  0.207463D-02
     39 -0.415846D-03 -0.620709D-03 -0.195609D-03  0.000000D+00 -0.271691D-02
     40 -0.121063D-03 -0.195609D-03 -0.574568D-05  0.000000D+00 -0.155926D-02
     41  0.000000D+00  0.000000D+00  0.000000D+00  0.512010D-04  0.000000D+00
     42  0.463427D-03  0.715545D-03  0.000000D+00  0.000000D+00  0.632565D-02
     43 -0.715545D-03 -0.111338D-02  0.000000D+00  0.000000D+00 -0.913886D-02
     44  0.000000D+00  0.000000D+00  0.898024D-04  0.000000D+00 -0.172448D-02
     45  0.000000D+00  0.000000D+00  0.000000D+00  0.898024D-04  0.000000D+00
     46  0.615270D-03  0.675946D-03  0.588250D-03  0.000000D+00  0.107651D-02
     47  0.303512D-04  0.440305D-04  0.148037D-04  0.000000D+00  0.216579D-03
     48  0.635625D-04  0.960250D-04 -0.887414D-05  0.000000D+00  0.106156D-02
     49  0.359027D-02  0.000000D+00  0.000000D+00  0.535689D-02  0.212724D-02
     50  0.000000D+00  0.881299D-03  0.000000D+00  0.000000D+00  0.902212D-03
     51  0.000000D+00  0.000000D+00  0.881299D-03  0.000000D+00 -0.526762D-03
     52 -0.535689D-02  0.000000D+00  0.000000D+00 -0.798600D-02 -0.303566D-02
     53  0.212724D-02  0.902212D-03 -0.526762D-03  0.303566D-02  0.359027D-02
     54 -0.902212D-03  0.680857D-04  0.246530D-03 -0.142072D-02  0.000000D+00
     55  0.526762D-03  0.246530D-03  0.346392D-03  0.829494D-03  0.000000D+00
     56 -0.303566D-02 -0.142072D-02  0.829494D-03 -0.428993D-02 -0.535689D-02
     57  0.729901D-03  0.582643D-03 -0.201397D-05  0.957665D-03  0.205632D-02
     58 -0.582643D-03 -0.359609D-03  0.175721D-05 -0.835572D-03 -0.910634D-03
     59  0.201397D-05  0.175721D-05  0.148747D-03  0.288825D-05 -0.501624D-03
     60 -0.957665D-03 -0.835572D-03  0.288825D-05 -0.122464D-02 -0.292625D-02
     61  0.433256D-03  0.332861D-03  0.194958D-03  0.547108D-03  0.707694D-03
     62 -0.332861D-03 -0.195012D-03 -0.163030D-03 -0.457510D-03 -0.288287D-03
     63 -0.194958D-03 -0.163030D-03 -0.121497D-04 -0.267966D-03 -0.490862D-03
     64 -0.547108D-03 -0.457510D-03 -0.267966D-03 -0.668651D-03 -0.926385D-03
     65  0.739932D-03  0.288835D-03  0.512890D-03  0.971820D-03  0.442747D-03
     66 -0.288835D-03  0.277782D-04 -0.218858D-03 -0.414690D-03  0.000000D+00
     67 -0.512890D-03 -0.218858D-03 -0.237603D-03 -0.736374D-03 -0.392697D-03
     68 -0.971820D-03 -0.414690D-03 -0.736374D-03 -0.124425D-02 -0.559966D-03
     69  0.206297D-02  0.000000D+00  0.104022D-02  0.293649D-02  0.739932D-03
     70  0.000000D+00  0.473793D-03  0.000000D+00  0.000000D+00  0.288830D-03
     71 -0.104022D-02  0.000000D+00 -0.104829D-03 -0.163342D-02 -0.512893D-03
     72 -0.293649D-02  0.000000D+00 -0.163342D-02 -0.413725D-02 -0.971820D-03
     73  0.852693D-04  0.828321D-04 -0.401534D-04  0.901416D-04  0.670739D-03
     74  0.294927D-02 -0.941125D-03 -0.535055D-03  0.398469D-02  0.128950D-02
     75  0.128401D-02  0.482460D-03 -0.721446D-03  0.161959D-02  0.294774D-02
     76  0.967599D-04  0.101410D-03 -0.191358D-04  0.110277D-03  0.679652D-03
     77 -0.101410D-03 -0.985534D-04  0.215907D-04 -0.124424D-03 -0.552055D-03
     78  0.191358D-04  0.215907D-04  0.117918D-04  0.234787D-04  0.000000D+00
     79 -0.110277D-03 -0.124424D-03  0.234787D-04 -0.119438D-03 -0.886999D-03
     80  0.375627D-04  0.370698D-04  0.212747D-04  0.403110D-04  0.954902D-04
     81 -0.370698D-04 -0.335486D-04 -0.224613D-04 -0.425593D-04 -0.676763D-04
     82 -0.212747D-04 -0.224613D-04 -0.730209D-05 -0.244252D-04 -0.762556D-04
     83 -0.403110D-04 -0.425593D-04 -0.244252D-04 -0.406918D-04 -0.108736D-03
     84  0.254741D-03  0.856258D-04  0.229863D-03  0.287441D-03  0.118442D-03
     85  0.124899D-02 -0.371296D-03  0.767986D-03  0.157207D-02  0.259702D-03
     86  0.639194D-05  0.750979D-05  0.218628D-05  0.617175D-05  0.375627D-04
     87 -0.750979D-05 -0.854305D-05 -0.271843D-05 -0.767396D-05 -0.370698D-04
     88 -0.218628D-05 -0.271843D-05  0.000000D+00 -0.223408D-05 -0.212747D-04
     89 -0.617175D-05 -0.767396D-05 -0.223408D-05 -0.551205D-05 -0.403110D-04
     90  0.100664D-04  0.121433D-04  0.000000D+00  0.997969D-05  0.967582D-04
     91 -0.121433D-04 -0.142341D-04  0.000000D+00 -0.127750D-04 -0.101408D-03
     92  0.000000D+00  0.000000D+00  0.131050D-05  0.000000D+00 -0.191355D-04
     93 -0.997969D-05 -0.127750D-04  0.000000D+00 -0.918838D-05 -0.110275D-03
     94  0.195058D-04  0.174789D-04  0.152112D-04  0.190213D-04  0.320235D-04
     95  0.123506D-05  0.151959D-05  0.000000D+00  0.104584D-05  0.760831D-05
     96  0.246308D-05  0.313770D-05  0.000000D+00  0.215948D-05  0.316318D-04
                6             7             8             9            10
      6  0.100000D+01
      7  0.000000D+00  0.100000D+01
      8  0.000000D+00  0.000000D+00  0.100000D+01
      9  0.355765D+00  0.195974D+00  0.000000D+00  0.100000D+01
     10 -0.199856D+00 -0.239946D+00  0.000000D+00  0.000000D+00  0.100000D+01
     11 -0.239946D+00  0.103561D+00  0.000000D+00  0.000000D+00  0.000000D+00
     12  0.000000D+00  0.000000D+00  0.235736D+00  0.000000D+00  0.000000D+00
     13  0.537875D-01  0.915831D-01  0.000000D+00  0.389948D+00  0.117580D-05
     14 -0.107884D-01 -0.722277D-01  0.000000D+00 -0.117580D-05  0.230728D+00
     15 -0.722277D-01 -0.913494D-01  0.000000D+00 -0.401898D+00 -0.164752D-05
     16  0.000000D+00  0.000000D+00  0.316316D-01  0.000000D+00  0.000000D+00
     17  0.000000D+00  0.584429D-01  0.000000D+00  0.810704D-01 -0.537887D-01
     18  0.148673D-01  0.000000D+00  0.000000D+00  0.537887D-01 -0.107874D-01
     19  0.000000D+00 -0.777017D-01  0.000000D+00 -0.915865D-01  0.722294D-01
     20  0.000000D+00  0.000000D+00  0.148673D-01  0.000000D+00  0.000000D+00
     21 -0.551950D-01  0.980133D-01  0.000000D+00  0.416123D-01 -0.490743D-01
     22 -0.800879D-02  0.747477D-01  0.000000D+00  0.490743D-01 -0.527412D-01
     23  0.747477D-01 -0.986495D-01  0.000000D+00 -0.287431D-01  0.393105D-01
     24  0.000000D+00  0.000000D+00  0.340845D-01  0.000000D+00  0.000000D+00
     25  0.541424D-01 -0.236809D-01  0.000000D+00  0.117112D+00  0.818180D-01
     26 -0.147808D+00  0.108759D-01  0.000000D+00  0.125287D-01 -0.166183D-01
     27  0.123245D-02 -0.489247D+00  0.000000D+00  0.117111D+00 -0.818167D-01
     28  0.100826D+00  0.000000D+00  0.000000D+00  0.396108D+00  0.355768D+00
     29 -0.127715D+00  0.000000D+00  0.000000D+00 -0.355768D+00 -0.199851D+00
     30  0.000000D+00  0.295730D-01  0.000000D+00  0.195978D+00  0.239950D+00
     31  0.000000D+00  0.000000D+00  0.295730D-01  0.000000D+00  0.000000D+00
     32  0.607896D-02  0.684958D-02  0.000000D+00  0.810675D-01  0.537874D-01
     33 -0.499051D-02 -0.746761D-02  0.000000D+00 -0.537874D-01 -0.107883D-01
     34 -0.746761D-02 -0.677733D-02  0.000000D+00 -0.915831D-01 -0.722276D-01
     35  0.000000D+00  0.000000D+00  0.163695D-02  0.000000D+00  0.000000D+00
     36  0.479566D-05  0.681342D-02  0.000000D+00  0.120610D-01 -0.585455D-02
     37 -0.109270D-01  0.135626D-01  0.000000D+00  0.479855D-02 -0.573066D-02
     38  0.271691D-02  0.155926D-02  0.000000D+00  0.416121D-01  0.490740D-01
     39 -0.344846D-02 -0.225274D-02  0.000000D+00 -0.490740D-01 -0.527410D-01
     40 -0.225274D-02 -0.816084D-03  0.000000D+00 -0.287429D-01 -0.393103D-01
     41  0.000000D+00  0.000000D+00  0.476788D-03  0.000000D+00  0.000000D+00
     42  0.913886D-02  0.172448D-02  0.000000D+00  0.846401D-01  0.110524D+00
     43 -0.130798D-01 -0.278258D-02  0.000000D+00 -0.110524D+00 -0.138571D+00
     44 -0.278258D-02  0.114138D-02  0.000000D+00 -0.382039D-03 -0.594133D-03
     45  0.000000D+00  0.000000D+00  0.166645D-02  0.000000D+00  0.000000D+00
     46  0.832971D-03  0.130394D-02  0.000000D+00  0.120608D-01  0.585443D-02
     47  0.279621D-03  0.160170D-03  0.000000D+00  0.479835D-02  0.573044D-02
     48  0.152544D-02  0.518003D-04  0.000000D+00  0.125287D-01  0.166182D-01
     49 -0.902212D-03  0.526762D-03  0.303566D-02  0.729901D-03 -0.582643D-03
     50  0.680857D-04  0.246530D-03  0.142072D-02  0.582643D-03 -0.359609D-03
     51  0.246530D-03  0.346392D-03 -0.829494D-03 -0.201397D-05  0.175721D-05
     52  0.142072D-02 -0.829494D-03 -0.428993D-02 -0.957665D-03  0.835572D-03
     53  0.000000D+00  0.000000D+00  0.535689D-02  0.205632D-02 -0.910634D-03
     54  0.881299D-03  0.000000D+00  0.000000D+00  0.910634D-03  0.272328D-04
     55  0.000000D+00  0.881299D-03  0.000000D+00  0.501624D-03 -0.245048D-03
     56  0.000000D+00  0.000000D+00 -0.798600D-02 -0.292625D-02  0.142950D-02
     57  0.910634D-03  0.501624D-03  0.292625D-02  0.359027D-02  0.000000D+00
     58  0.272328D-04 -0.245048D-03 -0.142950D-02  0.000000D+00  0.881299D-03
     59 -0.245048D-03  0.337101D-03 -0.787444D-03  0.000000D+00  0.000000D+00
     60 -0.142950D-02 -0.787444D-03 -0.412151D-02 -0.535689D-02  0.000000D+00
     61  0.288287D-03  0.490862D-03  0.926385D-03  0.203624D-02  0.000000D+00
     62  0.153995D-04 -0.218504D-03 -0.412375D-03  0.000000D+00  0.466935D-03
     63 -0.218504D-03 -0.228315D-03 -0.702144D-03 -0.103782D-02  0.000000D+00
     64 -0.412375D-03 -0.702144D-03 -0.118140D-02 -0.289534D-02  0.000000D+00
     65  0.000000D+00  0.392697D-03  0.559966D-03  0.707712D-03 -0.288289D-03
     66  0.853662D-04  0.000000D+00  0.000000D+00  0.288289D-03  0.154048D-04
     67  0.000000D+00 -0.293812D-03 -0.540689D-03 -0.490873D-03  0.218505D-03
     68  0.000000D+00 -0.540689D-03 -0.685629D-03 -0.926411D-03  0.412379D-03
     69 -0.288830D-03  0.512893D-03  0.971820D-03  0.433257D-03 -0.332861D-03
     70  0.277824D-04  0.218855D-03  0.414683D-03  0.332861D-03 -0.195011D-03
     71  0.218855D-03 -0.237607D-03 -0.736378D-03 -0.194959D-03  0.163031D-03
     72  0.414683D-03 -0.736378D-03 -0.124425D-02 -0.547110D-03  0.457511D-03
     73  0.501555D-03 -0.219371D-03  0.806741D-03  0.125595D-02  0.491073D-03
     74 -0.867847D-03  0.638572D-04  0.162704D-02  0.252444D-03 -0.240443D-03
     75  0.272797D-05 -0.108293D-02  0.398244D-02  0.125594D-02 -0.491068D-03
     76  0.552055D-03  0.000000D+00  0.886999D-03  0.205635D-02  0.910633D-03
     77 -0.352430D-03  0.000000D+00 -0.787038D-03 -0.910633D-03  0.272446D-04
     78  0.000000D+00  0.137411D-03  0.000000D+00  0.501630D-03  0.245048D-03
     79 -0.787038D-03  0.000000D+00 -0.112714D-02 -0.292629D-02 -0.142950D-02
     80  0.676763D-04  0.762556D-04  0.108736D-03  0.707693D-03  0.288287D-03
     81 -0.359949D-04 -0.581764D-04 -0.829563D-04 -0.288287D-03  0.153996D-04
     82 -0.581764D-04 -0.499151D-04 -0.934726D-04 -0.490861D-03 -0.218504D-03
     83 -0.829563D-04 -0.934726D-04 -0.117650D-03 -0.926384D-03 -0.412374D-03
     84  0.000000D+00  0.124189D-03  0.127608D-03  0.244961D-03 -0.856172D-04
     85 -0.156492D-03  0.194238D-03  0.293393D-03  0.115660D-03 -0.105099D-03
     86  0.370698D-04  0.212747D-04  0.403110D-04  0.433255D-03  0.332860D-03
     87 -0.335486D-04 -0.224613D-04 -0.425592D-04 -0.332860D-03 -0.195011D-03
     88 -0.224613D-04 -0.730210D-05 -0.244252D-04 -0.194958D-03 -0.163031D-03
     89 -0.425592D-04 -0.244252D-04 -0.406917D-04 -0.547107D-03 -0.457510D-03
     90  0.101408D-03  0.191355D-04  0.110275D-03  0.729907D-03  0.582646D-03
     91 -0.985521D-04 -0.215904D-04 -0.124422D-03 -0.582646D-03 -0.359609D-03
     92 -0.215904D-04  0.117916D-04 -0.234782D-04 -0.201399D-05 -0.175722D-05
     93 -0.124422D-03 -0.234782D-04 -0.119436D-03 -0.957673D-03 -0.835577D-03
     94  0.199353D-04  0.312068D-04  0.320657D-04  0.244958D-03  0.856158D-04
     95  0.816505D-05  0.467701D-05  0.706452D-05  0.115656D-03  0.105095D-03
     96  0.365832D-04  0.124228D-05  0.316524D-04  0.252442D-03  0.240442D-03
               11            12            13            14            15
     11  0.100000D+01
     12  0.000000D+00  0.100000D+01
     13  0.401898D+00  0.000000D+00  0.100000D+01
     14 -0.164752D-05  0.000000D+00  0.000000D+00  0.100000D+01
     15 -0.332405D+00  0.000000D+00  0.000000D+00  0.000000D+00  0.100000D+01
     16  0.000000D+00  0.230728D+00  0.000000D+00  0.000000D+00  0.000000D+00
     17  0.915865D-01  0.000000D+00  0.396110D+00 -0.355770D+00  0.195976D+00
     18  0.722294D-01  0.000000D+00  0.355770D+00 -0.199853D+00  0.239949D+00
     19 -0.913529D-01  0.000000D+00 -0.195976D+00  0.239949D+00  0.103567D+00
     20  0.000000D+00  0.316329D-01  0.000000D+00  0.000000D+00  0.000000D+00
     21  0.287431D-01  0.000000D+00  0.846385D-01 -0.110522D+00 -0.381940D-03
     22  0.393105D-01  0.000000D+00  0.110522D+00 -0.138569D+00 -0.593980D-03
     23 -0.864913D-02  0.000000D+00  0.381940D-03 -0.593980D-03  0.333089D-01
     24  0.000000D+00  0.143753D-01  0.000000D+00  0.000000D+00  0.000000D+00
     25 -0.116819D+00  0.000000D+00  0.120610D-01  0.585456D-02 -0.151175D-01
     26 -0.260071D-02  0.000000D+00  0.479844D-02 -0.573053D-02 -0.332887D-02
     27 -0.116818D+00  0.000000D+00  0.120608D-01 -0.585444D-02 -0.151172D-01
     28 -0.195978D+00  0.000000D+00  0.810694D-01  0.537878D-01 -0.915855D-01
     29  0.239950D+00  0.000000D+00 -0.537878D-01 -0.107871D-01  0.722284D-01
     30  0.103563D+00  0.000000D+00  0.915855D-01  0.722284D-01 -0.913522D-01
     31  0.000000D+00  0.235741D+00  0.000000D+00  0.000000D+00  0.000000D+00
     32  0.915831D-01  0.000000D+00  0.396101D+00  0.355765D+00  0.195974D+00
     33 -0.722276D-01  0.000000D+00 -0.355765D+00 -0.199855D+00 -0.239946D+00
     34 -0.913494D-01  0.000000D+00 -0.195974D+00 -0.239946D+00  0.103561D+00
     35  0.000000D+00  0.316315D-01  0.000000D+00  0.000000D+00  0.000000D+00
     36  0.151175D-01  0.000000D+00  0.117112D+00 -0.818178D-01  0.116819D+00
     37  0.332896D-02  0.000000D+00  0.125289D-01 -0.166185D-01  0.260075D-02
     38  0.287429D-01  0.000000D+00  0.846392D-01  0.110523D+00 -0.381944D-03
     39 -0.393103D-01  0.000000D+00 -0.110523D+00 -0.138570D+00  0.593985D-03
     40 -0.864905D-02  0.000000D+00  0.381944D-03  0.593985D-03  0.333093D-01
     41  0.000000D+00  0.143752D-01  0.000000D+00  0.000000D+00  0.000000D+00
     42  0.382039D-03  0.000000D+00  0.416131D-01  0.490752D-01 -0.287437D-01
     43 -0.594133D-03  0.000000D+00 -0.490752D-01 -0.527420D-01  0.393113D-01
     44  0.333097D-01  0.000000D+00  0.287437D-01  0.393113D-01 -0.864931D-02
     45  0.000000D+00  0.333117D-01  0.000000D+00  0.000000D+00  0.000000D+00
     46  0.151173D-01  0.000000D+00  0.117112D+00  0.818169D-01  0.116820D+00
     47  0.332881D-02  0.000000D+00  0.125285D-01  0.166180D-01  0.260066D-02
     48 -0.260069D-02  0.000000D+00  0.479848D-02  0.573058D-02 -0.332890D-02
     49  0.201397D-05  0.957665D-03  0.433256D-03 -0.332861D-03 -0.194958D-03
     50  0.175721D-05  0.835572D-03  0.332861D-03 -0.195012D-03 -0.163030D-03
     51  0.148747D-03 -0.288825D-05  0.194958D-03 -0.163030D-03 -0.121497D-04
     52 -0.288825D-05 -0.122464D-02 -0.547108D-03  0.457510D-03  0.267966D-03
     53 -0.501624D-03  0.292625D-02  0.707694D-03 -0.288287D-03 -0.490862D-03
     54 -0.245048D-03  0.142950D-02  0.288287D-03  0.153995D-04 -0.218504D-03
     55  0.337101D-03  0.787444D-03  0.490862D-03 -0.218504D-03 -0.228315D-03
     56  0.787444D-03 -0.412151D-02 -0.926385D-03  0.412375D-03  0.702144D-03
     57  0.000000D+00  0.535689D-02  0.203624D-02  0.000000D+00 -0.103782D-02
     58  0.000000D+00  0.000000D+00  0.000000D+00  0.466935D-03  0.000000D+00
     59  0.881299D-03  0.000000D+00  0.103782D-02  0.000000D+00 -0.116504D-03
     60  0.000000D+00 -0.798600D-02 -0.289534D-02  0.000000D+00  0.162769D-02
     61  0.103782D-02  0.289534D-02  0.359027D-02  0.000000D+00  0.000000D+00
     62  0.000000D+00  0.000000D+00  0.000000D+00  0.881299D-03  0.000000D+00
     63 -0.116504D-03 -0.162769D-02  0.000000D+00  0.000000D+00  0.881299D-03
     64 -0.162769D-02 -0.407404D-02 -0.535689D-02  0.000000D+00  0.000000D+00
     65  0.490873D-03  0.926411D-03  0.205635D-02 -0.910636D-03  0.501625D-03
     66  0.218505D-03  0.412379D-03  0.910636D-03  0.272442D-04  0.245046D-03
     67 -0.228318D-03 -0.702161D-03 -0.501625D-03  0.245046D-03  0.337110D-03
     68 -0.702161D-03 -0.118144D-02 -0.292630D-02  0.142951D-02 -0.787447D-03
     69  0.194959D-03  0.547110D-03  0.729897D-03 -0.582641D-03 -0.201348D-05
     70  0.163031D-03  0.457511D-03  0.582641D-03 -0.359608D-03 -0.175678D-05
     71 -0.121500D-04 -0.267967D-03  0.201348D-05 -0.175678D-05  0.148746D-03
     72 -0.267967D-03 -0.668654D-03 -0.957659D-03  0.835568D-03  0.288754D-05
     73 -0.701150D-03  0.158150D-02  0.244961D-03  0.856173D-04 -0.221079D-03
     74 -0.376284D-04  0.284688D-03  0.115658D-03 -0.105097D-03 -0.610508D-04
     75 -0.701150D-03  0.158149D-02  0.244957D-03 -0.856161D-04 -0.221076D-03
     76 -0.501630D-03  0.292629D-02  0.707705D-03  0.288286D-03 -0.490870D-03
     77  0.245048D-03 -0.142950D-02 -0.288286D-03  0.154048D-04  0.218504D-03
     78  0.337105D-03  0.787454D-03  0.490870D-03  0.218504D-03 -0.228319D-03
     79  0.787454D-03 -0.412157D-02 -0.926401D-03 -0.412374D-03  0.702157D-03
     80  0.490861D-03  0.926384D-03  0.205632D-02  0.910633D-03  0.501625D-03
     81 -0.218504D-03 -0.412374D-03 -0.910633D-03  0.272332D-04 -0.245049D-03
     82 -0.228315D-03 -0.702143D-03 -0.501625D-03 -0.245049D-03  0.337101D-03
     83 -0.702143D-03 -0.118140D-02 -0.292625D-02 -0.142950D-02 -0.787445D-03
     84  0.221079D-03  0.275731D-03  0.125594D-02 -0.491073D-03  0.701150D-03
     85  0.610521D-04  0.124439D-03  0.252446D-03 -0.240444D-03  0.376288D-04
     86  0.194958D-03  0.547107D-03  0.729901D-03  0.582643D-03 -0.201349D-05
     87 -0.163031D-03 -0.457510D-03 -0.582643D-03 -0.359609D-03  0.175679D-05
     88 -0.121499D-04 -0.267966D-03  0.201349D-05  0.175679D-05  0.148747D-03
     89 -0.267966D-03 -0.668650D-03 -0.957666D-03 -0.835572D-03  0.288756D-05
     90  0.201399D-05  0.957673D-03  0.433263D-03  0.332865D-03 -0.194962D-03
     91 -0.175722D-05 -0.835577D-03 -0.332865D-03 -0.195012D-03  0.163033D-03
     92  0.148748D-03 -0.288827D-05  0.194962D-03  0.163033D-03 -0.121500D-04
     93 -0.288827D-05 -0.122465D-02 -0.547118D-03 -0.457517D-03  0.267971D-03
     94  0.221077D-03  0.275728D-03  0.125595D-02  0.491067D-03  0.701154D-03
     95  0.610499D-04  0.124434D-03  0.252440D-03  0.240440D-03  0.376279D-04
     96 -0.376282D-04  0.284686D-03  0.115659D-03  0.105097D-03 -0.610512D-04
               16            17            18            19            20
     16  0.100000D+01
     17  0.000000D+00  0.100000D+01
     18  0.000000D+00  0.000000D+00  0.100000D+01
     19  0.000000D+00  0.000000D+00  0.000000D+00  0.100000D+01
     20  0.235743D+00  0.000000D+00  0.000000D+00  0.000000D+00  0.100000D+01
     21  0.000000D+00  0.418185D+00 -0.363502D+00 -0.212226D+00  0.000000D+00
     22  0.000000D+00  0.363502D+00 -0.180925D+00 -0.253958D+00  0.000000D+00
     23  0.000000D+00  0.212226D+00 -0.253958D+00  0.105785D+00  0.000000D+00
     24  0.333110D-01  0.000000D+00  0.000000D+00  0.000000D+00  0.254056D+00
     25  0.000000D+00  0.107656D-02  0.833011D-03 -0.130400D-02  0.000000D+00
     26  0.000000D+00  0.129869D-01 -0.109269D-01 -0.135622D-01  0.000000D+00
     27  0.000000D+00  0.493725D-02  0.476065D-05 -0.681342D-02  0.000000D+00
     28  0.000000D+00  0.622670D-02  0.607935D-02 -0.685011D-02  0.000000D+00
     29  0.000000D+00 -0.607935D-02 -0.499074D-02  0.746813D-02  0.000000D+00
     30  0.000000D+00  0.685011D-02  0.746813D-02 -0.677788D-02  0.000000D+00
     31  0.316324D-01  0.000000D+00  0.000000D+00  0.000000D+00  0.163708D-02
     32  0.000000D+00  0.766371D-01  0.100826D+00  0.000000D+00  0.000000D+00
     33  0.000000D+00 -0.100826D+00 -0.127715D+00  0.000000D+00  0.000000D+00
     34  0.000000D+00  0.000000D+00  0.000000D+00  0.295730D-01  0.000000D+00
     35  0.235736D+00  0.000000D+00  0.000000D+00  0.000000D+00  0.295730D-01
     36  0.000000D+00  0.520189D+00  0.122346D-02  0.489247D+00  0.000000D+00
     37  0.000000D+00  0.122080D+00 -0.147806D+00 -0.108750D-01  0.000000D+00
     38  0.000000D+00  0.632582D-02  0.913909D-02 -0.172450D-02  0.000000D+00
     39  0.000000D+00 -0.913909D-02 -0.130801D-01  0.278262D-02  0.000000D+00
     40  0.000000D+00  0.172450D-02  0.278262D-02  0.114143D-02  0.000000D+00
     41  0.333113D-01  0.000000D+00  0.000000D+00  0.000000D+00  0.166650D-02
     42  0.000000D+00  0.207478D-02  0.271710D-02 -0.155938D-02  0.000000D+00
     43  0.000000D+00 -0.271710D-02 -0.344869D-02  0.225290D-02  0.000000D+00
     44  0.000000D+00  0.155938D-02  0.225290D-02 -0.816142D-03  0.000000D+00
     45  0.143756D-01  0.000000D+00  0.000000D+00  0.000000D+00  0.476827D-03
     46  0.000000D+00  0.460708D-01  0.541439D-01  0.236823D-01  0.000000D+00
     47  0.000000D+00  0.106158D-02  0.152548D-02 -0.517983D-04  0.000000D+00
     48  0.000000D+00  0.216594D-03  0.279641D-03 -0.160181D-03  0.000000D+00
     49  0.547108D-03  0.739932D-03 -0.288835D-03 -0.512890D-03  0.971820D-03
     50  0.457510D-03  0.288835D-03  0.277782D-04 -0.218858D-03  0.414690D-03
     51  0.267966D-03  0.512890D-03 -0.218858D-03 -0.237603D-03  0.736374D-03
     52 -0.668651D-03 -0.971820D-03  0.414690D-03  0.736374D-03 -0.124425D-02
     53  0.926385D-03  0.442747D-03  0.000000D+00 -0.392697D-03  0.559966D-03
     54  0.412375D-03  0.000000D+00  0.853662D-04  0.000000D+00  0.000000D+00
     55  0.702144D-03  0.392697D-03  0.000000D+00 -0.293812D-03  0.540689D-03
     56 -0.118140D-02 -0.559966D-03  0.000000D+00  0.540689D-03 -0.685629D-03
     57  0.289534D-02  0.707712D-03  0.288289D-03 -0.490873D-03  0.926411D-03
     58  0.000000D+00 -0.288289D-03  0.154048D-04  0.218505D-03 -0.412379D-03
     59  0.162769D-02  0.490873D-03  0.218505D-03 -0.228318D-03  0.702161D-03
     60 -0.407404D-02 -0.926411D-03 -0.412379D-03  0.702161D-03 -0.118144D-02
     61  0.535689D-02  0.205635D-02  0.910636D-03 -0.501625D-03  0.292630D-02
     62  0.000000D+00 -0.910636D-03  0.272442D-04  0.245046D-03 -0.142951D-02
     63  0.000000D+00  0.501625D-03  0.245046D-03  0.337110D-03  0.787447D-03
     64 -0.798600D-02 -0.292630D-02 -0.142951D-02  0.787447D-03 -0.412158D-02
     65  0.292630D-02  0.359027D-02  0.000000D+00  0.000000D+00  0.535689D-02
     66  0.142951D-02  0.000000D+00  0.881299D-03  0.000000D+00  0.000000D+00
     67 -0.787447D-03  0.000000D+00  0.000000D+00  0.881299D-03  0.000000D+00
     68 -0.412158D-02 -0.535689D-02  0.000000D+00  0.000000D+00 -0.798600D-02
     69  0.957659D-03  0.212722D-02 -0.902219D-03 -0.526749D-03  0.303563D-02
     70  0.835568D-03  0.902219D-03  0.680710D-04 -0.246528D-03  0.142073D-02
     71  0.288754D-05  0.526749D-03 -0.246528D-03  0.346393D-03  0.829472D-03
     72 -0.122463D-02 -0.303563D-02  0.142073D-02  0.829472D-03 -0.428988D-02
     73  0.275732D-03  0.320249D-04  0.199361D-04 -0.312080D-04  0.320671D-04
     74  0.124436D-03  0.259698D-03 -0.156491D-03 -0.194234D-03  0.293388D-03
     75  0.275727D-03  0.118442D-03  0.000000D+00 -0.124189D-03  0.127608D-03
     76  0.926401D-03  0.954961D-04  0.676797D-04 -0.762603D-04  0.108743D-03
     77 -0.412374D-03 -0.676797D-04 -0.359958D-04  0.581794D-04 -0.829608D-04
     78  0.702157D-03  0.762603D-04  0.581794D-04 -0.499182D-04  0.934788D-04
     79 -0.118142D-02 -0.108743D-03 -0.829608D-04  0.934788D-04 -0.117659D-03
     80  0.292625D-02  0.679652D-03  0.552055D-03  0.000000D+00  0.886999D-03
     81 -0.142950D-02 -0.552055D-03 -0.352430D-03  0.000000D+00 -0.787038D-03
     82 -0.787445D-03  0.000000D+00  0.000000D+00  0.137411D-03  0.000000D+00
     83 -0.412151D-02 -0.886999D-03 -0.787038D-03  0.000000D+00 -0.112714D-02
     84  0.158150D-02  0.294774D-02  0.270806D-05  0.108293D-02  0.398244D-02
     85  0.284690D-03  0.128948D-02 -0.867842D-03 -0.638525D-04  0.162702D-02
     86  0.957666D-03  0.967603D-04  0.101410D-03 -0.191356D-04  0.110277D-03
     87 -0.835572D-03 -0.101410D-03 -0.985539D-04  0.215905D-04 -0.124425D-03
     88  0.288756D-05  0.191356D-04  0.215905D-04  0.117920D-04  0.234784D-04
     89 -0.122464D-02 -0.110277D-03 -0.124425D-03  0.234784D-04 -0.119439D-03
     90  0.547118D-03  0.375650D-04  0.370719D-04 -0.212760D-04  0.403136D-04
     91 -0.457517D-03 -0.370719D-04 -0.335503D-04  0.224626D-04 -0.425619D-04
     92  0.267971D-03  0.212760D-04  0.224626D-04 -0.730249D-05  0.244268D-04
     93 -0.668665D-03 -0.403136D-04 -0.425619D-04  0.244268D-04 -0.406946D-04
     94  0.158150D-02  0.670756D-03  0.501562D-03  0.219381D-03  0.806762D-03
     95  0.284683D-03  0.316324D-04  0.365839D-04 -0.124222D-05  0.316531D-04
     96  0.124437D-03  0.760882D-05  0.816556D-05 -0.467732D-05  0.706501D-05
               21            22            23            24            25
     21  0.100000D+01
     22  0.000000D+00  0.100000D+01
     23  0.000000D+00  0.000000D+00  0.100000D+01
     24  0.000000D+00  0.000000D+00  0.000000D+00  0.100000D+01
     25  0.615268D-03  0.675945D-03 -0.588246D-03  0.000000D+00  0.100000D+01
     26  0.116093D+00 -0.615788D-01 -0.127368D+00  0.000000D+00  0.880750D-03
     27  0.126731D-01  0.593719D-02 -0.159385D-01  0.000000D+00  0.615645D-01
     28  0.207471D-02  0.271701D-02 -0.155933D-02  0.000000D+00  0.520195D+00
     29 -0.271701D-02 -0.344858D-02  0.225283D-02  0.000000D+00 -0.122347D-02
     30  0.155933D-02  0.225283D-02 -0.816123D-03  0.000000D+00 -0.489250D+00
     31  0.000000D+00  0.000000D+00  0.000000D+00  0.476810D-03  0.000000D+00
     32  0.632552D-02  0.913867D-02  0.172444D-02  0.000000D+00  0.493725D-02
     33 -0.913867D-02 -0.130796D-01 -0.278252D-02  0.000000D+00 -0.479566D-05
     34 -0.172444D-02 -0.278252D-02  0.114136D-02  0.000000D+00 -0.681342D-02
     35  0.000000D+00  0.000000D+00  0.000000D+00  0.166641D-02  0.000000D+00
     36  0.121264D+00  0.818782D-01  0.122436D+00  0.000000D+00  0.164370D-03
     37  0.520729D+00 -0.425570D+00  0.241950D+00  0.000000D+00  0.701853D-04
     38  0.463416D-03  0.715527D-03  0.000000D+00  0.000000D+00  0.126733D-01
     39 -0.715527D-03 -0.111335D-02  0.000000D+00  0.000000D+00 -0.593731D-02
     40  0.000000D+00  0.000000D+00  0.898000D-04  0.000000D+00 -0.159387D-01
     41  0.000000D+00  0.000000D+00  0.000000D+00  0.898000D-04  0.000000D+00
     42  0.279197D-03  0.415856D-03 -0.121066D-03  0.000000D+00  0.121265D+00
     43 -0.415856D-03 -0.620724D-03  0.195614D-03  0.000000D+00 -0.818782D-01
     44  0.121066D-03  0.195614D-03 -0.574589D-05  0.000000D+00 -0.122437D+00
     45  0.000000D+00  0.000000D+00  0.000000D+00  0.512024D-04  0.000000D+00
     46  0.333997D-02  0.419340D-02  0.203279D-02  0.000000D+00  0.585154D-03
     47  0.635610D-04  0.960227D-04  0.887390D-05  0.000000D+00  0.233178D-02
     48  0.303519D-04  0.440315D-04 -0.148041D-04  0.000000D+00  0.627495D-01
     49  0.206297D-02  0.000000D+00 -0.104022D-02  0.293649D-02  0.852693D-04
     50  0.000000D+00  0.473793D-03  0.000000D+00  0.000000D+00  0.828321D-04
     51  0.104022D-02  0.000000D+00 -0.104829D-03  0.163342D-02 -0.401534D-04
     52 -0.293649D-02  0.000000D+00  0.163342D-02 -0.413725D-02 -0.901416D-04
     53  0.739932D-03  0.288830D-03 -0.512893D-03  0.971820D-03  0.670739D-03
     54 -0.288830D-03  0.277824D-04  0.218855D-03 -0.414683D-03  0.501555D-03
     55  0.512893D-03  0.218855D-03 -0.237607D-03  0.736378D-03 -0.219371D-03
     56 -0.971820D-03 -0.414683D-03  0.736378D-03 -0.124425D-02 -0.806741D-03
     57  0.433257D-03  0.332861D-03 -0.194959D-03  0.547110D-03  0.125595D-02
     58 -0.332861D-03 -0.195011D-03  0.163031D-03 -0.457511D-03  0.491073D-03
     59  0.194959D-03  0.163031D-03 -0.121500D-04  0.267967D-03 -0.701150D-03
     60 -0.547110D-03 -0.457511D-03  0.267967D-03 -0.668654D-03 -0.158150D-02
     61  0.729897D-03  0.582641D-03  0.201348D-05  0.957659D-03  0.244961D-03
     62 -0.582641D-03 -0.359608D-03 -0.175678D-05 -0.835568D-03  0.856173D-04
     63 -0.201348D-05 -0.175678D-05  0.148746D-03 -0.288754D-05 -0.221079D-03
     64 -0.957659D-03 -0.835568D-03 -0.288754D-05 -0.122463D-02 -0.275732D-03
     65  0.212722D-02  0.902219D-03  0.526749D-03  0.303563D-02  0.320249D-04
     66 -0.902219D-03  0.680710D-04 -0.246528D-03 -0.142073D-02  0.199361D-04
     67 -0.526749D-03 -0.246528D-03  0.346393D-03 -0.829472D-03 -0.312080D-04
     68 -0.303563D-02 -0.142073D-02 -0.829472D-03 -0.428988D-02 -0.320671D-04
     69  0.359027D-02  0.000000D+00  0.000000D+00  0.535689D-02  0.195057D-04
     70  0.000000D+00  0.881299D-03  0.000000D+00  0.000000D+00  0.174788D-04
     71  0.000000D+00  0.000000D+00  0.881299D-03  0.000000D+00 -0.152111D-04
     72 -0.535689D-02  0.000000D+00  0.000000D+00 -0.798600D-02 -0.190213D-04
     73  0.195057D-04  0.174788D-04 -0.152111D-04  0.190213D-04  0.420193D-02
     74  0.124898D-02 -0.371298D-03 -0.767981D-03  0.157206D-02  0.353431D-04
     75  0.254737D-03  0.856244D-04 -0.229860D-03  0.287436D-03  0.103145D-02
     76  0.375640D-04  0.370709D-04 -0.212755D-04  0.403124D-04  0.294776D-02
     77 -0.370709D-04 -0.335495D-04  0.224620D-04 -0.425607D-04 -0.270808D-05
     78  0.212755D-04  0.224620D-04 -0.730239D-05  0.244261D-04 -0.108292D-02
     79 -0.403124D-04 -0.425607D-04  0.244261D-04 -0.406933D-04 -0.398247D-02
     80  0.967565D-04  0.101406D-03  0.191351D-04  0.110273D-03  0.118442D-03
     81 -0.101406D-03 -0.985507D-04 -0.215900D-04 -0.124420D-03  0.000000D+00
     82 -0.191351D-04 -0.215900D-04  0.117914D-04 -0.234777D-04 -0.124189D-03
     83 -0.110273D-03 -0.124420D-03 -0.234777D-04 -0.119433D-03 -0.127608D-03
     84  0.128403D-02  0.482465D-03  0.721449D-03  0.161961D-02  0.797034D-05
     85  0.294929D-02 -0.941120D-03  0.535057D-03  0.398472D-02  0.367404D-05
     86  0.100661D-04  0.121430D-04  0.000000D+00  0.997945D-05  0.254741D-03
     87 -0.121430D-04 -0.142338D-04  0.000000D+00 -0.127747D-04 -0.856257D-04
     88  0.000000D+00  0.000000D+00  0.131047D-05  0.000000D+00 -0.229863D-03
     89 -0.997945D-05 -0.127747D-04  0.000000D+00 -0.918815D-05 -0.287441D-03
     90  0.639208D-05  0.750995D-05 -0.218633D-05  0.617190D-05  0.128403D-02
     91 -0.750995D-05 -0.854322D-05  0.271849D-05 -0.767414D-05 -0.482463D-03
     92  0.218633D-05  0.271849D-05  0.000000D+00  0.223413D-05 -0.721453D-03
     93 -0.617190D-05 -0.767414D-05  0.223413D-05 -0.551218D-05 -0.161961D-02
     94  0.852701D-04  0.828326D-04  0.401540D-04  0.901425D-04  0.247082D-04
     95  0.246302D-05  0.313763D-05  0.000000D+00  0.215943D-05  0.817102D-04
     96  0.123509D-05  0.151962D-05  0.000000D+00  0.104586D-05  0.104452D-02
               26            27            28            29            30
     26  0.100000D+01
     27  0.627490D-01  0.100000D+01
     28  0.106161D-02  0.460704D-01  0.100000D+01
     29 -0.152551D-02 -0.541436D-01  0.000000D+00  0.100000D+01
     30  0.518028D-04 -0.236818D-01  0.000000D+00  0.000000D+00  0.100000D+01
     31  0.000000D+00  0.000000D+00  0.000000D+00  0.000000D+00  0.000000D+00
     32  0.216583D-03  0.107649D-02  0.428270D-01  0.000000D+00  0.584418D-01
     33 -0.279627D-03 -0.832964D-03  0.000000D+00  0.148670D-01  0.000000D+00
     34 -0.160173D-03 -0.130392D-02 -0.584418D-01  0.000000D+00 -0.777004D-01
     35  0.000000D+00  0.000000D+00  0.000000D+00  0.000000D+00  0.000000D+00
     36  0.233181D-02  0.585154D-03  0.107654D-02 -0.832994D-03  0.130397D-02
     37  0.608514D-01  0.233179D-02  0.216596D-03 -0.279643D-03  0.160184D-03
     38  0.303519D-04  0.615259D-03  0.862692D-01  0.551949D-01  0.980113D-01
     39 -0.440315D-04 -0.675935D-03 -0.551949D-01 -0.800992D-02 -0.747472D-01
     40 -0.148041D-04 -0.588239D-03 -0.980113D-01 -0.747472D-01 -0.986471D-01
     41  0.000000D+00  0.000000D+00  0.000000D+00  0.000000D+00  0.000000D+00
     42  0.635641D-04  0.333997D-02  0.418187D+00  0.363501D+00  0.212230D+00
     43 -0.960273D-04 -0.419339D-02 -0.363501D+00 -0.180920D+00 -0.253962D+00
     44 -0.887437D-05 -0.203279D-02 -0.212230D+00 -0.253962D+00  0.105781D+00
     45  0.000000D+00  0.000000D+00  0.000000D+00  0.000000D+00  0.000000D+00
     46  0.701843D-04  0.164365D-03  0.493715D-02 -0.477805D-05  0.681329D-02
     47  0.333018D-05  0.701818D-04  0.129865D-01  0.109266D-01  0.135619D-01
     48  0.101296D-04  0.880745D-03  0.122077D+00  0.147803D+00  0.108755D-01
     49  0.294927D-02  0.128401D-02  0.967599D-04 -0.101410D-03  0.191358D-04
     50 -0.941125D-03  0.482460D-03  0.101410D-03 -0.985534D-04  0.215907D-04
     51 -0.535055D-03 -0.721446D-03 -0.191358D-04  0.215907D-04  0.117918D-04
     52 -0.398469D-02 -0.161959D-02 -0.110277D-03  0.124424D-03 -0.234787D-04
     53  0.128950D-02  0.294774D-02  0.679652D-03 -0.552055D-03  0.000000D+00
     54 -0.867847D-03  0.272797D-05  0.552055D-03 -0.352430D-03  0.000000D+00
     55  0.638572D-04 -0.108293D-02  0.000000D+00  0.000000D+00  0.137411D-03
     56 -0.162704D-02 -0.398244D-02 -0.886999D-03  0.787038D-03  0.000000D+00
     57  0.252444D-03  0.125594D-02  0.205635D-02 -0.910633D-03  0.501630D-03
     58 -0.240443D-03 -0.491068D-03  0.910633D-03  0.272446D-04  0.245048D-03
     59 -0.376284D-04 -0.701150D-03 -0.501630D-03  0.245048D-03  0.337105D-03
     60 -0.284688D-03 -0.158149D-02 -0.292629D-02  0.142950D-02 -0.787454D-03
     61  0.115658D-03  0.244957D-03  0.707705D-03 -0.288286D-03  0.490870D-03
     62 -0.105097D-03 -0.856161D-04  0.288286D-03  0.154048D-04  0.218504D-03
     63 -0.610508D-04 -0.221076D-03 -0.490870D-03  0.218504D-03 -0.228319D-03
     64 -0.124436D-03 -0.275727D-03 -0.926401D-03  0.412374D-03 -0.702157D-03
     65  0.259698D-03  0.118442D-03  0.954961D-04 -0.676797D-04  0.762603D-04
     66 -0.156491D-03  0.000000D+00  0.676797D-04 -0.359958D-04  0.581794D-04
     67 -0.194234D-03 -0.124189D-03 -0.762603D-04  0.581794D-04 -0.499182D-04
     68 -0.293388D-03 -0.127608D-03 -0.108743D-03  0.829608D-04 -0.934788D-04
     69  0.124898D-02  0.254737D-03  0.375640D-04 -0.370709D-04  0.212755D-04
     70 -0.371298D-03  0.856244D-04  0.370709D-04 -0.335495D-04  0.224620D-04
     71 -0.767981D-03 -0.229860D-03 -0.212755D-04  0.224620D-04 -0.730239D-05
     72 -0.157206D-02 -0.287436D-03 -0.403124D-04  0.425607D-04 -0.244261D-04
     73  0.353431D-04  0.103145D-02  0.294776D-02 -0.270808D-05 -0.108292D-02
     74  0.420193D-02  0.104451D-02  0.316330D-04 -0.365845D-04  0.124233D-05
     75  0.104451D-02  0.420193D-02  0.670751D-03 -0.501561D-03 -0.219377D-03
     76  0.316330D-04  0.670751D-03  0.359027D-02  0.000000D+00  0.000000D+00
     77 -0.365845D-04 -0.501561D-03  0.000000D+00  0.881299D-03  0.000000D+00
     78  0.124233D-05 -0.219377D-03  0.000000D+00  0.000000D+00  0.881299D-03
     79 -0.316537D-04 -0.806757D-03 -0.535689D-02  0.000000D+00  0.000000D+00
     80  0.760845D-05  0.320232D-04  0.442741D-03  0.000000D+00  0.392693D-03
     81 -0.816519D-05 -0.199352D-04  0.000000D+00  0.853648D-04  0.000000D+00
     82 -0.467710D-05 -0.312064D-04 -0.392693D-03  0.000000D+00 -0.293810D-03
     83 -0.706466D-05 -0.320653D-04 -0.559957D-03  0.000000D+00 -0.540682D-03
     84  0.817109D-04  0.247082D-04  0.320244D-04 -0.199358D-04  0.312076D-04
     85  0.102353D-02  0.817104D-04  0.760888D-05 -0.816561D-05  0.467738D-05
     86  0.123509D-05  0.195054D-04  0.739923D-03  0.288831D-03  0.512886D-03
     87 -0.151962D-05 -0.174786D-04 -0.288831D-03  0.277779D-04 -0.218856D-03
     88  0.000000D+00 -0.152109D-04 -0.512886D-03 -0.218856D-03 -0.237603D-03
     89 -0.104586D-05 -0.190210D-04 -0.971807D-03 -0.414684D-03 -0.736368D-03
     90  0.246314D-05  0.852700D-04  0.212723D-02  0.902213D-03  0.526758D-03
     91 -0.313777D-05 -0.828325D-04 -0.902213D-03  0.680782D-04 -0.246530D-03
     92  0.000000D+00 -0.401539D-04 -0.526758D-03 -0.246530D-03  0.346389D-03
     93 -0.215954D-05 -0.901424D-04 -0.303563D-02 -0.142072D-02 -0.829488D-03
     94  0.367400D-05  0.797013D-05  0.118440D-03  0.000000D+00  0.124188D-03
     95  0.000000D+00  0.367388D-05  0.259692D-03  0.156489D-03  0.194231D-03
     96  0.000000D+00  0.353429D-04  0.128947D-02  0.867836D-03  0.638558D-04
               31            32            33            34            35
     31  0.100000D+01
     32  0.000000D+00  0.100000D+01
     33  0.000000D+00  0.000000D+00  0.100000D+01
     34  0.000000D+00  0.000000D+00  0.000000D+00  0.100000D+01
     35  0.148670D-01  0.000000D+00  0.000000D+00  0.000000D+00  0.100000D+01
     36  0.000000D+00  0.460693D-01 -0.541424D-01  0.236809D-01  0.000000D+00
     37  0.000000D+00  0.106158D-02 -0.152547D-02 -0.518016D-04  0.000000D+00
     38  0.000000D+00  0.418191D+00  0.363503D+00 -0.212233D+00  0.000000D+00
     39  0.000000D+00 -0.363503D+00 -0.180916D+00  0.253964D+00  0.000000D+00
     40  0.000000D+00  0.212233D+00  0.253964D+00  0.105783D+00  0.000000D+00
     41  0.340838D-01  0.000000D+00  0.000000D+00  0.000000D+00  0.254061D+00
     42  0.000000D+00  0.862716D-01  0.551952D-01 -0.980144D-01  0.000000D+00
     43  0.000000D+00 -0.551952D-01 -0.800824D-02  0.747480D-01  0.000000D+00
     44  0.000000D+00  0.980144D-01  0.747480D-01 -0.986508D-01  0.000000D+00
     45  0.254057D+00  0.000000D+00  0.000000D+00  0.000000D+00  0.340849D-01
     46  0.000000D+00  0.520189D+00 -0.123695D-02  0.489247D+00  0.000000D+00
     47  0.000000D+00  0.122079D+00  0.147806D+00 -0.108757D-01  0.000000D+00
     48  0.000000D+00  0.129870D-01  0.109269D-01 -0.135624D-01  0.000000D+00
     49  0.110277D-03  0.375627D-04 -0.370698D-04 -0.212747D-04  0.403110D-04
     50  0.124424D-03  0.370698D-04 -0.335486D-04 -0.224613D-04  0.425593D-04
     51 -0.234787D-04  0.212747D-04 -0.224613D-04 -0.730209D-05  0.244252D-04
     52 -0.119438D-03 -0.403110D-04  0.425593D-04  0.244252D-04 -0.406918D-04
     53  0.886999D-03  0.954902D-04 -0.676763D-04 -0.762556D-04  0.108736D-03
     54  0.787038D-03  0.676763D-04 -0.359949D-04 -0.581764D-04  0.829563D-04
     55  0.000000D+00  0.762556D-04 -0.581764D-04 -0.499151D-04  0.934726D-04
     56 -0.112714D-02 -0.108736D-03  0.829563D-04  0.934726D-04 -0.117650D-03
     57  0.292629D-02  0.707693D-03 -0.288287D-03 -0.490861D-03  0.926384D-03
     58  0.142950D-02  0.288287D-03  0.153996D-04 -0.218504D-03  0.412374D-03
     59 -0.787454D-03  0.490861D-03 -0.218504D-03 -0.228315D-03  0.702143D-03
     60 -0.412157D-02 -0.926384D-03  0.412374D-03  0.702143D-03 -0.118140D-02
     61  0.926401D-03  0.205632D-02 -0.910633D-03 -0.501625D-03  0.292625D-02
     62  0.412374D-03  0.910633D-03  0.272332D-04 -0.245049D-03  0.142950D-02
     63 -0.702157D-03  0.501625D-03 -0.245049D-03  0.337101D-03  0.787445D-03
     64 -0.118142D-02 -0.292625D-02  0.142950D-02  0.787445D-03 -0.412151D-02
     65  0.108743D-03  0.679652D-03 -0.552055D-03  0.000000D+00  0.886999D-03
     66  0.829608D-04  0.552055D-03 -0.352430D-03  0.000000D+00  0.787038D-03
     67 -0.934788D-04  0.000000D+00  0.000000D+00  0.137411D-03  0.000000D+00
     68 -0.117659D-03 -0.886999D-03  0.787038D-03  0.000000D+00 -0.112714D-02
     69  0.403124D-04  0.967565D-04 -0.101406D-03 -0.191351D-04  0.110273D-03
     70  0.425607D-04  0.101406D-03 -0.985507D-04 -0.215900D-04  0.124420D-03
     71 -0.244261D-04  0.191351D-04 -0.215900D-04  0.117914D-04  0.234777D-04
     72 -0.406933D-04 -0.110273D-03  0.124420D-03  0.234777D-04 -0.119433D-03
     73  0.398247D-02  0.118442D-03  0.000000D+00 -0.124189D-03  0.127608D-03
     74  0.316537D-04  0.760845D-05 -0.816519D-05 -0.467710D-05  0.706466D-05
     75  0.806757D-03  0.320232D-04 -0.199352D-04 -0.312064D-04  0.320653D-04
     76  0.535689D-02  0.442741D-03  0.000000D+00 -0.392693D-03  0.559957D-03
     77  0.000000D+00  0.000000D+00  0.853648D-04  0.000000D+00  0.000000D+00
     78  0.000000D+00  0.392693D-03  0.000000D+00 -0.293810D-03  0.540682D-03
     79 -0.798600D-02 -0.559957D-03  0.000000D+00  0.540682D-03 -0.685618D-03
     80  0.559957D-03  0.359027D-02  0.000000D+00  0.000000D+00  0.535689D-02
     81  0.000000D+00  0.000000D+00  0.881299D-03  0.000000D+00  0.000000D+00
     82 -0.540682D-03  0.000000D+00  0.000000D+00  0.881299D-03  0.000000D+00
     83 -0.685618D-03 -0.535689D-02  0.000000D+00  0.000000D+00 -0.798600D-02
     84  0.320665D-04  0.670739D-03 -0.501555D-03  0.219371D-03  0.806741D-03
     85  0.706507D-05  0.316324D-04 -0.365839D-04 -0.124230D-05  0.316530D-04
     86  0.971807D-03  0.212724D-02  0.902212D-03 -0.526762D-03  0.303566D-02
     87 -0.414684D-03 -0.902212D-03  0.680857D-04  0.246530D-03 -0.142072D-02
     88 -0.736368D-03  0.526762D-03  0.246530D-03  0.346392D-03  0.829493D-03
     89 -0.124423D-02 -0.303566D-02 -0.142072D-02  0.829493D-03 -0.428993D-02
     90  0.303563D-02  0.739938D-03  0.288830D-03 -0.512897D-03  0.971828D-03
     91 -0.142072D-02 -0.288830D-03  0.277846D-04  0.218855D-03 -0.414683D-03
     92 -0.829488D-03  0.512897D-03  0.218855D-03 -0.237608D-03  0.736384D-03
     93 -0.428989D-02 -0.971828D-03 -0.414683D-03  0.736384D-03 -0.124426D-02
     94  0.127605D-03  0.294774D-02 -0.273793D-05  0.108293D-02  0.398244D-02
     95  0.293381D-03  0.128948D-02  0.867841D-03 -0.638565D-04  0.162702D-02
     96  0.162700D-02  0.259700D-03  0.156491D-03 -0.194236D-03  0.293390D-03
               36            37            38            39            40
     36  0.100000D+01
     37  0.627504D-01  0.100000D+01
     38  0.333994D-02  0.635641D-04  0.100000D+01
     39 -0.419337D-02 -0.960274D-04  0.000000D+00  0.100000D+01
     40  0.203276D-02  0.887436D-05  0.000000D+00  0.000000D+00  0.100000D+01
     41  0.000000D+00  0.000000D+00  0.000000D+00  0.000000D+00  0.000000D+00
     42  0.615279D-03  0.303534D-04  0.398147D+00 -0.287640D-05 -0.407575D+00
     43 -0.675957D-03 -0.440336D-04  0.287640D-05  0.237410D+00 -0.401758D-05
     44  0.588257D-03  0.148049D-04  0.407575D+00 -0.401758D-05 -0.331866D+00
     45  0.000000D+00  0.000000D+00  0.000000D+00  0.000000D+00  0.000000D+00
     46  0.615655D-01  0.880781D-03  0.121261D+00 -0.818766D-01  0.122433D+00
     47  0.880733D-03  0.101296D-04  0.520720D+00  0.425567D+00  0.241943D+00
     48  0.701841D-04  0.333034D-05  0.116093D+00  0.615788D-01 -0.127368D+00
     49  0.254741D-03  0.124899D-02  0.639194D-05 -0.750979D-05 -0.218628D-05
     50  0.856258D-04 -0.371296D-03  0.750979D-05 -0.854305D-05 -0.271843D-05
     51  0.229863D-03  0.767986D-03  0.218628D-05 -0.271843D-05  0.000000D+00
     52 -0.287441D-03 -0.157207D-02 -0.617175D-05  0.767396D-05  0.223408D-05
     53  0.118442D-03  0.259702D-03  0.375627D-04 -0.370698D-04 -0.212747D-04
     54  0.000000D+00 -0.156492D-03  0.370698D-04 -0.335486D-04 -0.224613D-04
     55  0.124189D-03  0.194238D-03  0.212747D-04 -0.224613D-04 -0.730210D-05
     56 -0.127608D-03 -0.293393D-03 -0.403110D-04  0.425592D-04  0.244252D-04
     57  0.244961D-03  0.115660D-03  0.433255D-03 -0.332860D-03 -0.194958D-03
     58 -0.856172D-04 -0.105099D-03  0.332860D-03 -0.195011D-03 -0.163031D-03
     59  0.221079D-03  0.610521D-04  0.194958D-03 -0.163031D-03 -0.121499D-04
     60 -0.275731D-03 -0.124439D-03 -0.547107D-03  0.457510D-03  0.267966D-03
     61  0.125594D-02  0.252446D-03  0.729901D-03 -0.582643D-03  0.201349D-05
     62 -0.491073D-03 -0.240444D-03  0.582643D-03 -0.359609D-03  0.175679D-05
     63  0.701150D-03  0.376288D-04 -0.201349D-05  0.175679D-05  0.148747D-03
     64 -0.158150D-02 -0.284690D-03 -0.957666D-03  0.835572D-03 -0.288756D-05
     65  0.294774D-02  0.128948D-02  0.967603D-04 -0.101410D-03  0.191356D-04
     66  0.270806D-05 -0.867842D-03  0.101410D-03 -0.985539D-04  0.215905D-04
     67  0.108293D-02 -0.638525D-04 -0.191356D-04  0.215905D-04  0.117920D-04
     68 -0.398244D-02 -0.162702D-02 -0.110277D-03  0.124425D-03 -0.234784D-04
     69  0.128403D-02  0.294929D-02  0.100661D-04 -0.121430D-04  0.000000D+00
     70  0.482465D-03 -0.941120D-03  0.121430D-04 -0.142338D-04  0.000000D+00
     71  0.721449D-03  0.535057D-03  0.000000D+00  0.000000D+00  0.131047D-05
     72 -0.161961D-02 -0.398472D-02 -0.997945D-05  0.127747D-04  0.000000D+00
     73  0.797034D-05  0.367404D-05  0.254741D-03 -0.856257D-04 -0.229863D-03
     74  0.817109D-04  0.102353D-02  0.123509D-05 -0.151962D-05  0.000000D+00
     75  0.247082D-04  0.817104D-04  0.195054D-04 -0.174786D-04 -0.152109D-04
     76  0.320244D-04  0.760888D-05  0.739923D-03 -0.288831D-03 -0.512886D-03
     77 -0.199358D-04 -0.816561D-05  0.288831D-03  0.277779D-04 -0.218856D-03
     78  0.312076D-04  0.467738D-05  0.512886D-03 -0.218856D-03 -0.237603D-03
     79 -0.320665D-04 -0.706507D-05 -0.971807D-03  0.414684D-03  0.736368D-03
     80  0.670739D-03  0.316324D-04  0.212724D-02 -0.902212D-03  0.526762D-03
     81 -0.501555D-03 -0.365839D-04  0.902212D-03  0.680857D-04  0.246530D-03
     82  0.219371D-03 -0.124230D-05 -0.526762D-03  0.246530D-03  0.346392D-03
     83 -0.806741D-03 -0.316530D-04 -0.303566D-02  0.142072D-02 -0.829493D-03
     84  0.420193D-02  0.104453D-02  0.852694D-04 -0.828321D-04  0.401534D-04
     85  0.104453D-02  0.420193D-02  0.246314D-05 -0.313777D-05  0.000000D+00
     86  0.852694D-04  0.246314D-05  0.359027D-02  0.000000D+00  0.000000D+00
     87 -0.828321D-04 -0.313777D-05  0.000000D+00  0.881299D-03  0.000000D+00
     88  0.401534D-04  0.000000D+00  0.000000D+00  0.000000D+00  0.881299D-03
     89 -0.901417D-04 -0.215954D-05 -0.535689D-02  0.000000D+00  0.000000D+00
     90  0.195060D-04  0.123514D-05  0.206297D-02  0.000000D+00 -0.104022D-02
     91 -0.174791D-04 -0.151969D-05  0.000000D+00  0.473793D-03  0.000000D+00
     92  0.152113D-04  0.000000D+00  0.104022D-02  0.000000D+00 -0.104829D-03
     93 -0.190216D-04 -0.104591D-05 -0.293649D-02  0.000000D+00  0.163342D-02
     94  0.103146D-02  0.353441D-04  0.128401D-02 -0.482461D-03  0.721442D-03
     95  0.353425D-04  0.000000D+00  0.294926D-02  0.941130D-03  0.535051D-03
     96  0.367398D-05  0.000000D+00  0.124898D-02  0.371298D-03 -0.767981D-03
               41            42            43            44            45
     41  0.100000D+01
     42  0.000000D+00  0.100000D+01
     43  0.000000D+00  0.000000D+00  0.100000D+01
     44  0.000000D+00  0.000000D+00  0.000000D+00  0.100000D+01
     45  0.237410D+00  0.000000D+00  0.000000D+00  0.000000D+00  0.100000D+01
     46  0.000000D+00  0.126731D-01 -0.593720D-02  0.159385D-01  0.000000D+00
     47  0.000000D+00  0.116092D+00  0.615791D-01  0.127366D+00  0.000000D+00
     48  0.000000D+00  0.520719D+00  0.425567D+00 -0.241944D+00  0.000000D+00
     49  0.617175D-05  0.100664D-04 -0.121433D-04  0.000000D+00  0.997969D-05
     50  0.767396D-05  0.121433D-04 -0.142341D-04  0.000000D+00  0.127750D-04
     51  0.223408D-05  0.000000D+00  0.000000D+00  0.131050D-05  0.000000D+00
     52 -0.551205D-05 -0.997969D-05  0.127750D-04  0.000000D+00 -0.918838D-05
     53  0.403110D-04  0.967582D-04 -0.101408D-03 -0.191355D-04  0.110275D-03
     54  0.425592D-04  0.101408D-03 -0.985521D-04 -0.215904D-04  0.124422D-03
     55  0.244252D-04  0.191355D-04 -0.215904D-04  0.117916D-04  0.234782D-04
     56 -0.406917D-04 -0.110275D-03  0.124422D-03  0.234782D-04 -0.119436D-03
     57  0.547107D-03  0.729907D-03 -0.582646D-03 -0.201399D-05  0.957673D-03
     58  0.457510D-03  0.582646D-03 -0.359609D-03 -0.175722D-05  0.835577D-03
     59  0.267966D-03  0.201399D-05 -0.175722D-05  0.148748D-03  0.288827D-05
     60 -0.668650D-03 -0.957673D-03  0.835577D-03  0.288827D-05 -0.122465D-02
     61  0.957666D-03  0.433263D-03 -0.332865D-03  0.194962D-03  0.547118D-03
     62  0.835572D-03  0.332865D-03 -0.195012D-03  0.163033D-03  0.457517D-03
     63 -0.288756D-05 -0.194962D-03  0.163033D-03 -0.121500D-04 -0.267971D-03
     64 -0.122464D-02 -0.547118D-03  0.457517D-03 -0.267971D-03 -0.668665D-03
     65  0.110277D-03  0.375650D-04 -0.370719D-04  0.212760D-04  0.403136D-04
     66  0.124425D-03  0.370719D-04 -0.335503D-04  0.224626D-04  0.425619D-04
     67 -0.234784D-04 -0.212760D-04  0.224626D-04 -0.730249D-05 -0.244268D-04
     68 -0.119439D-03 -0.403136D-04  0.425619D-04 -0.244268D-04 -0.406946D-04
     69  0.997945D-05  0.639208D-05 -0.750995D-05  0.218633D-05  0.617190D-05
     70  0.127747D-04  0.750995D-05 -0.854322D-05  0.271849D-05  0.767414D-05
     71  0.000000D+00 -0.218633D-05  0.271849D-05  0.000000D+00 -0.223413D-05
     72 -0.918815D-05 -0.617190D-05  0.767414D-05 -0.223413D-05 -0.551218D-05
     73  0.287441D-03  0.128403D-02 -0.482463D-03 -0.721453D-03  0.161961D-02
     74  0.104586D-05  0.246314D-05 -0.313777D-05  0.000000D+00  0.215954D-05
     75  0.190210D-04  0.852700D-04 -0.828325D-04 -0.401539D-04  0.901424D-04
     76  0.971807D-03  0.212723D-02 -0.902213D-03 -0.526758D-03  0.303563D-02
     77  0.414684D-03  0.902213D-03  0.680782D-04 -0.246530D-03  0.142072D-02
     78  0.736368D-03  0.526758D-03 -0.246530D-03  0.346389D-03  0.829488D-03
     79 -0.124423D-02 -0.303563D-02  0.142072D-02  0.829488D-03 -0.428989D-02
     80  0.303566D-02  0.739938D-03 -0.288830D-03  0.512897D-03  0.971828D-03
     81  0.142072D-02  0.288830D-03  0.277846D-04  0.218855D-03  0.414683D-03
     82 -0.829493D-03 -0.512897D-03  0.218855D-03 -0.237608D-03 -0.736384D-03
     83 -0.428993D-02 -0.971828D-03  0.414683D-03 -0.736384D-03 -0.124426D-02
     84  0.901417D-04  0.195060D-04 -0.174791D-04  0.152113D-04  0.190216D-04
     85  0.215954D-05  0.123514D-05 -0.151969D-05  0.000000D+00  0.104591D-05
     86  0.535689D-02  0.206297D-02  0.000000D+00  0.104022D-02  0.293649D-02
     87  0.000000D+00  0.000000D+00  0.473793D-03  0.000000D+00  0.000000D+00
     88  0.000000D+00 -0.104022D-02  0.000000D+00 -0.104829D-03 -0.163342D-02
     89 -0.798600D-02 -0.293649D-02  0.000000D+00 -0.163342D-02 -0.413725D-02
     90  0.293649D-02  0.359027D-02  0.000000D+00  0.000000D+00  0.535689D-02
     91  0.000000D+00  0.000000D+00  0.881299D-03  0.000000D+00  0.000000D+00
     92  0.163342D-02  0.000000D+00  0.000000D+00  0.881299D-03  0.000000D+00
     93 -0.413725D-02 -0.535689D-02  0.000000D+00  0.000000D+00 -0.798600D-02
     94  0.161958D-02  0.254737D-03 -0.856245D-04  0.229860D-03  0.287437D-03
     95  0.398467D-02  0.124897D-02  0.371303D-03  0.767974D-03  0.157205D-02
     96  0.157206D-02  0.294926D-02  0.941130D-03 -0.535052D-03  0.398467D-02
               46            47            48            49            50
     46  0.100000D+01
     47  0.627472D-01  0.100000D+01
     48  0.233174D-02  0.608514D-01  0.100000D+01
     49  0.195058D-04  0.123506D-05  0.246308D-05  0.100000D+01
     50  0.174789D-04  0.151959D-05  0.313770D-05  0.000000D+00  0.100000D+01
     51  0.152112D-04  0.000000D+00  0.000000D+00  0.000000D+00  0.000000D+00
     52 -0.190213D-04 -0.104584D-05 -0.215948D-05  0.000000D+00  0.000000D+00
     53  0.320235D-04  0.760831D-05  0.316318D-04  0.418191D+00  0.363502D+00
     54  0.199353D-04  0.816505D-05  0.365832D-04 -0.363502D+00 -0.180916D+00
     55  0.312068D-04  0.467701D-05  0.124228D-05  0.212233D+00  0.253964D+00
     56 -0.320657D-04 -0.706452D-05 -0.316524D-04  0.000000D+00  0.000000D+00
     57  0.244958D-03  0.115656D-03  0.252442D-03  0.846391D-01  0.110523D+00
     58  0.856158D-04  0.105095D-03  0.240442D-03 -0.110523D+00 -0.138570D+00
     59  0.221077D-03  0.610499D-04 -0.376282D-04  0.382034D-03  0.594126D-03
     60 -0.275728D-03 -0.124434D-03 -0.284686D-03  0.000000D+00  0.000000D+00
     61  0.125595D-02  0.252440D-03  0.115659D-03  0.416121D-01  0.490741D-01
     62  0.491067D-03  0.240440D-03  0.105097D-03 -0.490741D-01 -0.527411D-01
     63  0.701154D-03  0.376279D-04 -0.610512D-04 -0.287429D-01 -0.393103D-01
     64 -0.158150D-02 -0.284683D-03 -0.124437D-03  0.000000D+00  0.000000D+00
     65  0.670756D-03  0.316324D-04  0.760882D-05  0.862706D-01  0.551960D-01
     66  0.501562D-03  0.365839D-04  0.816556D-05 -0.551960D-01 -0.801020D-02
     67  0.219381D-03 -0.124222D-05 -0.467732D-05 -0.980127D-01 -0.747485D-01
     68 -0.806762D-03 -0.316531D-04 -0.706501D-05  0.000000D+00  0.000000D+00
     69  0.852701D-04  0.246302D-05  0.123509D-05  0.398147D+00  0.000000D+00
     70  0.828326D-04  0.313763D-05  0.151962D-05  0.000000D+00  0.237410D+00
     71  0.401540D-04  0.000000D+00  0.000000D+00 -0.407575D+00  0.000000D+00
     72 -0.901425D-04 -0.215943D-05 -0.104586D-05  0.000000D+00  0.000000D+00
     73  0.247082D-04  0.817102D-04  0.104452D-02  0.333994D-02  0.419336D-02
     74  0.367400D-05  0.000000D+00  0.000000D+00  0.520724D+00 -0.425568D+00
     75  0.797013D-05  0.367388D-05  0.353429D-04  0.121262D+00  0.818767D-01
     76  0.118440D-03  0.259692D-03  0.128947D-02  0.632579D-02  0.913905D-02
     77  0.000000D+00  0.156489D-03  0.867836D-03 -0.913905D-02 -0.130801D-01
     78  0.124188D-03  0.194231D-03  0.638558D-04  0.172452D-02  0.278265D-02
     79 -0.127605D-03 -0.293381D-03 -0.162700D-02  0.000000D+00  0.000000D+00
     80  0.294774D-02  0.128948D-02  0.259700D-03  0.207463D-02  0.271691D-02
     81 -0.273793D-05  0.867841D-03  0.156491D-03 -0.271691D-02 -0.344846D-02
     82  0.108293D-02 -0.638565D-04 -0.194236D-03 -0.155926D-02 -0.225274D-02
     83 -0.398244D-02 -0.162702D-02 -0.293390D-03  0.000000D+00  0.000000D+00
     84  0.103146D-02  0.353425D-04  0.367398D-05  0.126733D-01  0.593732D-02
     85  0.353441D-04  0.000000D+00  0.000000D+00  0.116094D+00 -0.615787D-01
[...]
    20  C    0.000000   0.000000   0.000000   0.000000   0.000000   0.000000
    21  C    0.000000   0.000000   0.000000   0.000000   0.000000   0.000000
    22  C    0.000000   0.000000   0.000000   0.000000   0.000000   0.000000
    23  C    0.000000   0.000000   0.000000   0.000000   0.000000   0.000000
    24  C    0.000000   0.000000   0.000000   0.000000   0.000000   0.000000
    25  H    0.000000   0.000000   0.000000   0.000000   0.000000   0.000000
    26  H    0.000000   0.000000   0.000000   0.000000   0.000000   0.000000
    27  H    0.000000   0.000000   0.000000   0.000000   0.000000   0.000000
    28  C    0.000000   0.000000   0.000000   0.000000   0.000000   0.000000
    29  C    0.000000   0.000000   0.000000   0.000000   0.000000   0.000000
    30  H    0.000000   0.000000   0.000000   0.000000   0.000000   0.000000
    31  H    0.000000   0.000000   0.000000   0.000000   0.000000   0.000000
    32  C    0.000000   0.000000   0.000000   0.000000   0.000000   0.000000
    33  C    0.000000   0.000000   0.000000   0.000000   0.000000   0.000000
    34  H    0.000000   0.000000   0.000000   0.000000   0.000000   0.000000
    35  H    0.000000   0.000000   0.000000   0.000000   0.000000   0.000000
    36  H    0.000000   0.000000   0.000000   0.000000   0.000000   0.000000
              7          8          9         10         11         12
     1  C    0.000000   0.000000   0.000000   0.000000   0.000000   0.000000
     2  C    0.000000   0.000000   0.000000   0.000000   0.000000   0.000000
     3  C    0.000000   0.000000   0.000000   0.000000   0.000000   0.000000
     4  C    0.000000   0.000000   0.000000   0.000000   0.000000   0.000000
     5  C    0.000000   0.000000   0.000000   0.000000   0.000000   0.000000
     6  C    0.000000   0.000000   0.000000   0.000000   0.000000   0.000000
     7  H    0.968315   0.000000   0.000000   0.000000   0.000000   0.000000
     8  H    0.000000   0.967768   0.000000   0.000000   0.000000   0.000000
     9  H    0.000000   0.000000   0.968317   0.000000   0.000000   0.000000
    10  C    0.000000   0.000000   0.000000   4.037120   0.000000   0.000000
    11  C    0.000000   0.000000   0.000000   0.000000   4.037120   0.000000
    12  H    0.000000   0.000000   0.000000   0.000000   0.000000   0.968319
    13  H    0.000000   0.000000   0.000000   0.000000   0.000000   0.000000
    14  C    0.000000   0.000000   0.000000   0.000000   0.000000   0.000000
    15  C    0.000000   0.000000   0.000000   0.000000   0.000000   0.000000
    16  H    0.000000   0.000000   0.000000   0.000000   0.000000   0.000000
    17  H    0.000000   0.000000   0.000000   0.000000   0.000000   0.000000
    18  H    0.000000   0.000000   0.000000   0.000000   0.000000   0.000000
    19  C    0.000000   0.000000   0.000000   0.000000   0.000000   0.000000
    20  C    0.000000   0.000000   0.000000   0.000000   0.000000   0.000000
    21  C    0.000000   0.000000   0.000000   0.000000   0.000000   0.000000
    22  C    0.000000   0.000000   0.000000   0.000000   0.000000   0.000000
    23  C    0.000000   0.000000   0.000000   0.000000   0.000000   0.000000
    24  C    0.000000   0.000000   0.000000   0.000000   0.000000   0.000000
    25  H    0.000000   0.000000   0.000000   0.000000   0.000000   0.000000
    26  H    0.000000   0.000000   0.000000   0.000000   0.000000   0.000000
    27  H    0.000000   0.000000   0.000000   0.000000   0.000000   0.000000
    28  C    0.000000   0.000000   0.000000   0.000000   0.000000   0.000000
    29  C    0.000000   0.000000   0.000000   0.000000   0.000000   0.000000
    30  H    0.000000   0.000000   0.000000   0.000000   0.000000   0.000000
    31  H    0.000000   0.000000   0.000000   0.000000   0.000000   0.000000
    32  C    0.000000   0.000000   0.000000   0.000000   0.000000   0.000000
    33  C    0.000000   0.000000   0.000000   0.000000   0.000000   0.000000
    34  H    0.000000   0.000000   0.000000   0.000000   0.000000   0.000000
    35  H    0.000000   0.000000   0.000000   0.000000   0.000000   0.000000
    36  H    0.000000   0.000000   0.000000   0.000000   0.000000   0.000000
             13         14         15         16         17         18
     1  C    0.000000   0.000000   0.000000   0.000000   0.000000   0.000000
     2  C    0.000000   0.000000   0.000000   0.000000   0.000000   0.000000
     3  C    0.000000   0.000000   0.000000   0.000000   0.000000   0.000000
     4  C    0.000000   0.000000   0.000000   0.000000   0.000000   0.000000
     5  C    0.000000   0.000000   0.000000   0.000000   0.000000   0.000000
     6  C    0.000000   0.000000   0.000000   0.000000   0.000000   0.000000
     7  H    0.000000   0.000000   0.000000   0.000000   0.000000   0.000000
     8  H    0.000000   0.000000   0.000000   0.000000   0.000000   0.000000
     9  H    0.000000   0.000000   0.000000   0.000000   0.000000   0.000000
    10  C    0.000000   0.000000   0.000000   0.000000   0.000000   0.000000
    11  C    0.000000   0.000000   0.000000   0.000000   0.000000   0.000000
    12  H    0.000000   0.000000   0.000000   0.000000   0.000000   0.000000
    13  H    0.967765   0.000000   0.000000   0.000000   0.000000   0.000000
    14  C    0.000000   4.034594   0.000000   0.000000   0.000000   0.000000
    15  C    0.000000   0.000000   4.034596   0.000000   0.000000   0.000000
    16  H    0.000000   0.000000   0.000000   0.968317   0.000000   0.000000
    17  H    0.000000   0.000000   0.000000   0.000000   0.967768   0.000000
    18  H    0.000000   0.000000   0.000000   0.000000   0.000000   0.967769
    19  C    0.000000   0.000000   0.000000   0.000000   0.000000   0.000000
    20  C    0.000000   0.000000   0.000000   0.000000   0.000000   0.000000
    21  C    0.000000   0.000000   0.000000   0.000000   0.000000   0.000000
    22  C    0.000000   0.000000   0.000000   0.000000   0.000000   0.000000
    23  C    0.000000   0.000000   0.000000   0.000000   0.000000   0.000000
    24  C    0.000000   0.000000   0.000000   0.000000   0.000000   0.000000
    25  H    0.000000   0.000000   0.000000   0.000000   0.000000   0.000000
    26  H    0.000000   0.000000   0.000000   0.000000   0.000000   0.000000
    27  H    0.000000   0.000000   0.000000   0.000000   0.000000   0.000000
    28  C    0.000000   0.000000   0.000000   0.000000   0.000000   0.000000
    29  C    0.000000   0.000000   0.000000   0.000000   0.000000   0.000000
    30  H    0.000000   0.000000   0.000000   0.000000   0.000000   0.000000
    31  H    0.000000   0.000000   0.000000   0.000000   0.000000   0.000000
    32  C    0.000000   0.000000   0.000000   0.000000   0.000000   0.000000
    33  C    0.000000   0.000000   0.000000   0.000000   0.000000   0.000000
    34  H    0.000000   0.000000   0.000000   0.000000   0.000000   0.000000
    35  H    0.000000   0.000000   0.000000   0.000000   0.000000   0.000000
    36  H    0.000000   0.000000   0.000000   0.000000   0.000000   0.000000
             19         20         21         22         23         24
     1  C    0.000000   0.000000   0.000000   0.000000   0.000000   0.000000
     2  C    0.000000   0.000000   0.000000   0.000000   0.000000   0.000000
     3  C    0.000000   0.000000   0.000000   0.000000   0.000000   0.000000
     4  C    0.000000   0.000000   0.000000   0.000000   0.000000   0.000000
     5  C    0.000000   0.000000   0.000000   0.000000   0.000000   0.000000
     6  C    0.000000   0.000000   0.000000   0.000000   0.000000   0.000000
     7  H    0.000000   0.000000   0.000000   0.000000   0.000000   0.000000
     8  H    0.000000   0.000000   0.000000   0.000000   0.000000   0.000000
     9  H    0.000000   0.000000   0.000000   0.000000   0.000000   0.000000
    10  C    0.000000   0.000000   0.000000   0.000000   0.000000   0.000000
    11  C    0.000000   0.000000   0.000000   0.000000   0.000000   0.000000
    12  H    0.000000   0.000000   0.000000   0.000000   0.000000   0.000000
    13  H    0.000000   0.000000   0.000000   0.000000   0.000000   0.000000
    14  C    0.000000   0.000000   0.000000   0.000000   0.000000   0.000000
    15  C    0.000000   0.000000   0.000000   0.000000   0.000000   0.000000
    16  H    0.000000   0.000000   0.000000   0.000000   0.000000   0.000000
    17  H    0.000000   0.000000   0.000000   0.000000   0.000000   0.000000
    18  H    0.000000   0.000000   0.000000   0.000000   0.000000   0.000000
    19  C    4.034594   0.000000   0.000000   0.000000   0.000000   0.000000
    20  C    0.000000   4.037121   0.000000   0.000000   0.000000   0.000000
    21  C    0.000000   0.000000   3.984401   0.000000   0.000000   0.000000
    22  C    0.000000   0.000000   0.000000   3.984401   0.000000   0.000000
    23  C    0.000000   0.000000   0.000000   0.000000   4.037119   0.000000
    24  C    0.000000   0.000000   0.000000   0.000000   0.000000   4.034599
    25  H    0.000000   0.000000   0.000000   0.000000   0.000000   0.000000
    26  H    0.000000   0.000000   0.000000   0.000000   0.000000   0.000000
    27  H    0.000000   0.000000   0.000000   0.000000   0.000000   0.000000
    28  C    0.000000   0.000000   0.000000   0.000000   0.000000   0.000000
    29  C    0.000000   0.000000   0.000000   0.000000   0.000000   0.000000
    30  H    0.000000   0.000000   0.000000   0.000000   0.000000   0.000000
    31  H    0.000000   0.000000   0.000000   0.000000   0.000000   0.000000
    32  C    0.000000   0.000000   0.000000   0.000000   0.000000   0.000000
    33  C    0.000000   0.000000   0.000000   0.000000   0.000000   0.000000
    34  H    0.000000   0.000000   0.000000   0.000000   0.000000   0.000000
    35  H    0.000000   0.000000   0.000000   0.000000   0.000000   0.000000
    36  H    0.000000   0.000000   0.000000   0.000000   0.000000   0.000000
             25         26         27         28         29         30
     1  C    0.000000   0.000000   0.000000   0.000000   0.000000   0.000000
     2  C    0.000000   0.000000   0.000000   0.000000   0.000000   0.000000
     3  C    0.000000   0.000000   0.000000   0.000000   0.000000   0.000000
     4  C    0.000000   0.000000   0.000000   0.000000   0.000000   0.000000
     5  C    0.000000   0.000000   0.000000   0.000000   0.000000   0.000000
     6  C    0.000000   0.000000   0.000000   0.000000   0.000000   0.000000
     7  H    0.000000   0.000000   0.000000   0.000000   0.000000   0.000000
     8  H    0.000000   0.000000   0.000000   0.000000   0.000000   0.000000
     9  H    0.000000   0.000000   0.000000   0.000000   0.000000   0.000000
    10  C    0.000000   0.000000   0.000000   0.000000   0.000000   0.000000
    11  C    0.000000   0.000000   0.000000   0.000000   0.000000   0.000000
    12  H    0.000000   0.000000   0.000000   0.000000   0.000000   0.000000
    13  H    0.000000   0.000000   0.000000   0.000000   0.000000   0.000000
    14  C    0.000000   0.000000   0.000000   0.000000   0.000000   0.000000
    15  C    0.000000   0.000000   0.000000   0.000000   0.000000   0.000000
    16  H    0.000000   0.000000   0.000000   0.000000   0.000000   0.000000
    17  H    0.000000   0.000000   0.000000   0.000000   0.000000   0.000000
    18  H    0.000000   0.000000   0.000000   0.000000   0.000000   0.000000
    19  C    0.000000   0.000000   0.000000   0.000000   0.000000   0.000000
    20  C    0.000000   0.000000   0.000000   0.000000   0.000000   0.000000
    21  C    0.000000   0.000000   0.000000   0.000000   0.000000   0.000000
    22  C    0.000000   0.000000   0.000000   0.000000   0.000000   0.000000
    23  C    0.000000   0.000000   0.000000   0.000000   0.000000   0.000000
    24  C    0.000000   0.000000   0.000000   0.000000   0.000000   0.000000
    25  H    0.968315   0.000000   0.000000   0.000000   0.000000   0.000000
    26  H    0.000000   0.967768   0.000000   0.000000   0.000000   0.000000
    27  H    0.000000   0.000000   0.968317   0.000000   0.000000   0.000000
    28  C    0.000000   0.000000   0.000000   4.037120   0.000000   0.000000
    29  C    0.000000   0.000000   0.000000   0.000000   4.037120   0.000000
    30  H    0.000000   0.000000   0.000000   0.000000   0.000000   0.968319
    31  H    0.000000   0.000000   0.000000   0.000000   0.000000   0.000000
    32  C    0.000000   0.000000   0.000000   0.000000   0.000000   0.000000
    33  C    0.000000   0.000000   0.000000   0.000000   0.000000   0.000000
    34  H    0.000000   0.000000   0.000000   0.000000   0.000000   0.000000
    35  H    0.000000   0.000000   0.000000   0.000000   0.000000   0.000000
    36  H    0.000000   0.000000   0.000000   0.000000   0.000000   0.000000
             31         32         33         34         35         36
     1  C    0.000000   0.000000   0.000000   0.000000   0.000000   0.000000
     2  C    0.000000   0.000000   0.000000   0.000000   0.000000   0.000000
     3  C    0.000000   0.000000   0.000000   0.000000   0.000000   0.000000
     4  C    0.000000   0.000000   0.000000   0.000000   0.000000   0.000000
     5  C    0.000000   0.000000   0.000000   0.000000   0.000000   0.000000
     6  C    0.000000   0.000000   0.000000   0.000000   0.000000   0.000000
     7  H    0.000000   0.000000   0.000000   0.000000   0.000000   0.000000
     8  H    0.000000   0.000000   0.000000   0.000000   0.000000   0.000000
     9  H    0.000000   0.000000   0.000000   0.000000   0.000000   0.000000
    10  C    0.000000   0.000000   0.000000   0.000000   0.000000   0.000000
    11  C    0.000000   0.000000   0.000000   0.000000   0.000000   0.000000
    12  H    0.000000   0.000000   0.000000   0.000000   0.000000   0.000000
    13  H    0.000000   0.000000   0.000000   0.000000   0.000000   0.000000
    14  C    0.000000   0.000000   0.000000   0.000000   0.000000   0.000000
    15  C    0.000000   0.000000   0.000000   0.000000   0.000000   0.000000
    16  H    0.000000   0.000000   0.000000   0.000000   0.000000   0.000000
    17  H    0.000000   0.000000   0.000000   0.000000   0.000000   0.000000
    18  H    0.000000   0.000000   0.000000   0.000000   0.000000   0.000000
    19  C    0.000000   0.000000   0.000000   0.000000   0.000000   0.000000
    20  C    0.000000   0.000000   0.000000   0.000000   0.000000   0.000000
    21  C    0.000000   0.000000   0.000000   0.000000   0.000000   0.000000
    22  C    0.000000   0.000000   0.000000   0.000000   0.000000   0.000000
    23  C    0.000000   0.000000   0.000000   0.000000   0.000000   0.000000
    24  C    0.000000   0.000000   0.000000   0.000000   0.000000   0.000000
    25  H    0.000000   0.000000   0.000000   0.000000   0.000000   0.000000
    26  H    0.000000   0.000000   0.000000   0.000000   0.000000   0.000000
    27  H    0.000000   0.000000   0.000000   0.000000   0.000000   0.000000
    28  C    0.000000   0.000000   0.000000   0.000000   0.000000   0.000000
    29  C    0.000000   0.000000   0.000000   0.000000   0.000000   0.000000
    30  H    0.000000   0.000000   0.000000   0.000000   0.000000   0.000000
    31  H    0.967765   0.000000   0.000000   0.000000   0.000000   0.000000
    32  C    0.000000   4.034594   0.000000   0.000000   0.000000   0.000000
    33  C    0.000000   0.000000   4.034596   0.000000   0.000000   0.000000
    34  H    0.000000   0.000000   0.000000   0.968317   0.000000   0.000000
    35  H    0.000000   0.000000   0.000000   0.000000   0.967768   0.000000
    36  H    0.000000   0.000000   0.000000   0.000000   0.000000   0.967769
 Mulliken atomic charges:
              1
     1  C   -0.034594
     2  C   -0.037121
     3  C    0.015599
     4  C    0.015599
     5  C   -0.037119
     6  C   -0.034599
     7  H    0.031685
     8  H    0.032232
     9  H    0.031683
    10  C   -0.037120
    11  C   -0.037120
    12  H    0.031681
    13  H    0.032235
    14  C   -0.034594
    15  C   -0.034596
    16  H    0.031683
    17  H    0.032232
    18  H    0.032231
    19  C   -0.034594
    20  C   -0.037121
    21  C    0.015599
    22  C    0.015599
    23  C   -0.037119
    24  C   -0.034599
    25  H    0.031685
    26  H    0.032232
    27  H    0.031683
    28  C   -0.037120
    29  C   -0.037120
    30  H    0.031681
    31  H    0.032235
    32  C   -0.034594
    33  C   -0.034596
    34  H    0.031683
    35  H    0.032232
    36  H    0.032231
 Sum of Mulliken charges=   0.00000
 Atomic charges with hydrogens summed into heavy atoms:
              1
     1  C   -0.002362
     2  C   -0.005438
     3  C    0.015599
     4  C    0.015599
     5  C   -0.005437
     6  C   -0.002363
     7  H    0.000000
     8  H    0.000000
     9  H    0.000000
    10  C   -0.005435
    11  C   -0.005436
    12  H    0.000000
    13  H    0.000000
    14  C   -0.002362
    15  C   -0.002365
    16  H    0.000000
    17  H    0.000000
    18  H    0.000000
    19  C   -0.002362
    20  C   -0.005438
    21  C    0.015599
    22  C    0.015599
    23  C   -0.005437
    24  C   -0.002363
    25  H    0.000000
    26  H    0.000000
    27  H    0.000000
    28  C   -0.005435
    29  C   -0.005436
    30  H    0.000000
    31  H    0.000000
    32  C   -0.002362
    33  C   -0.002365
    34  H    0.000000
    35  H    0.000000
    36  H    0.000000
 Sum of Mulliken charges=   0.00000
 Electronic spatial extent (au):  <R**2>=  7802.2083
 Charge=   -61.4289 electrons
 Dipole moment (field-independent basis, Debye):
    X=     0.0009    Y=     0.0003    Z=  -590.1107  Tot=   590.1107
 Quadrupole moment (field-independent basis, Debye-Ang):
   XX= -1240.2118   YY=  -646.2208   ZZ= -2555.7383
   XY=    -0.0017   XZ=     0.0018   YZ=     0.0007
 Traceless Quadrupole moment (field-independent basis, Debye-Ang):
   XX=   240.5118   YY=   834.5028   ZZ= -1075.0146
   XY=    -0.0017   XZ=     0.0018   YZ=     0.0007
 Octapole moment (field-independent basis, Debye-Ang**2):
  XXX=     0.0094  YYY=     0.0027  ZZZ=-10613.5438  XYY=     0.0002
  XXY=    -0.0004  XXZ= -2480.4237  XZZ=     0.0072  YZZ=     0.0028
  YYZ= -1292.4416  XYZ=    -0.0034
 Hexadecapole moment (field-independent basis, Debye-Ang**3):
 XXXX=-10919.0817 YYYY= -3171.1750 ZZZZ=-47319.1689 XXXY=    -0.0170
 XXXZ=     0.0188 YYYX=    -0.0090 YYYZ=     0.0055 ZZZX=     0.0294
 ZZZY=     0.0116 XXYY= -2231.3823 XXZZ=-10647.5723 YYZZ= -5508.6267
 XXYZ=    -0.0009 YYXZ=     0.0004 ZZXY=    -0.0148
 N-N= 5.461570535628D+02 E-N= 0.000000000000D+00  KE=-1.266421155317D+03

 Test job not archived.
 1\1\GINC-RHUBARB\SP\RZINDO\STO-3G\C20H16\JK905\10-Oct-2007\0\\# ZINDO 
 PUNCH=MO IOP(3/33=1) NOSYMM\\04/10/07: Geometry from napthalene_b3lyp_
 of.log and reorientated to put long axi geometric centre on origin.\\0
 ,1\C,0,-2.4336,-0.70848,0.\C,0,-1.24478,-1.40258,0.\C,0,-0.0000018091,
 -0.716892,0.\C,0,0.0000023856,0.716891,0.\C,0,-1.24476,1.40257,0.\C,0,
 -2.4336,0.708481,0.\H,0,1.24204,-2.49027,0.\H,0,-3.37834,-1.24559,0.\H
 ,0,-1.24204,-2.49028,0.\C,0,1.24476,-1.40258,0.\C,0,1.24478,1.40258,0.
 \H,0,-1.24204,2.49027,0.\H,0,-3.37833,1.24559,0.\C,0,2.4336,0.708481,0
 .\C,0,2.43359,-0.70848,0.\H,0,1.24203,2.49028,0.\H,0,3.37835,1.24559,0
 .\H,0,3.37834,-1.24559,0.\C,0,-2.4336,-0.70848,4.\C,0,-1.24478,-1.4025
 8,4.\C,0,-0.0000018091,-0.716892,4.\C,0,0.0000023856,0.716891,4.\C,0,-
 1.24476,1.40257,4.\C,0,-2.4336,0.708481,4.\H,0,1.24204,-2.49027,4.\H,0
 ,-3.37834,-1.24559,4.\H,0,-1.24204,-2.49028,4.\C,0,1.24476,-1.40258,4.
 \C,0,1.24478,1.40258,4.\H,0,-1.24204,2.49027,4.\H,0,-3.37833,1.24559,4
 .\C,0,2.4336,0.708481,4.\C,0,2.43359,-0.70848,4.\H,0,1.24203,2.49028,4
 .\H,0,3.37835,1.24559,4.\H,0,3.37834,-1.24559,4.\\Version=x86_64-Linux
 -G03RevB.05\HF=-123.354367\RMSD=1.414e-09\PG=CS [X(C20H16)]\\@


 QED = W**5 (WHICH WAS WHAT WE WANTED)
 Job cpu time:  0 days  0 hours  0 minutes  4.0 seconds.
 File lengths (MBytes):  RWF=     36 Int=      0 D2E=      0 Chk=     11 Scr=      1
 Normal termination of Gaussian 03 at Wed Oct 10 10:14:56 2007.
