 Entering Gaussian System, Link 0=g03
 Input=5.5_pair.com
 Output=5.5_pair.log
 Initial command:
 /usr/local/g03/l1.exe /export/home/joe2/code/svnJ/J_from_g03/examples/naphthalene_zindo/Gau-12559.inp -scrdir=/export/home/joe2/code/svnJ/J_from_g03/examples/naphthalene_zindo/
 Entering Link 1 = /usr/local/g03/l1.exe PID=     12560.
  
 Copyright (c) 1988,1990,1992,1993,1995,1998,2003, Gaussian, Inc.
                  All Rights Reserved.
  
 This is the Gaussian(R) 03 program.  It is based on the
 the Gaussian(R) 98 system (copyright 1998, Gaussian, Inc.),
 the Gaussian(R) 94 system (copyright 1995, Gaussian, Inc.),
 the Gaussian 92(TM) system (copyright 1992, Gaussian, Inc.),
 the Gaussian 90(TM) system (copyright 1990, Gaussian, Inc.),
 the Gaussian 88(TM) system (copyright 1988, Gaussian, Inc.),
 the Gaussian 86(TM) system (copyright 1986, Carnegie Mellon
 University), and the Gaussian 82(TM) system (copyright 1983,
 Carnegie Mellon University). Gaussian is a federally registered
 trademark of Gaussian, Inc.
  
 This software contains proprietary and confidential information,
 including trade secrets, belonging to Gaussian, Inc.
  
 This software is provided under written license and may be
 used, copied, transmitted, or stored only in accord with that
 written license.
  
 The following legend is applicable only to US Government
 contracts under DFARS:
  
                    RESTRICTED RIGHTS LEGEND
  
 Use, duplication or disclosure by the US Government is subject
 to restrictions as set forth in subparagraph (c)(1)(ii) of the
 Rights in Technical Data and Computer Software clause at DFARS
 252.227-7013.
  
 Gaussian, Inc.
 Carnegie Office Park, Building 6, Pittsburgh, PA 15106 USA
  
 The following legend is applicable only to US Government
 contracts under FAR:
  
                    RESTRICTED RIGHTS LEGEND
  
 Use, reproduction and disclosure by the US Government is subject
 to restrictions as set forth in subparagraph (c) of the
 Commercial Computer Software - Restricted Rights clause at FAR
 52.227-19.
  
 Gaussian, Inc.
 Carnegie Office Park, Building 6, Pittsburgh, PA 15106 USA
  
  
 ---------------------------------------------------------------
 Warning -- This program may not be used in any manner that
 competes with the business of Gaussian, Inc. or will provide
 assistance to any competitor of Gaussian, Inc.  The licensee
 of this program is prohibited from giving any competitor of
 Gaussian, Inc. access to this program.  By using this program,
 the user acknowledges that Gaussian, Inc. is engaged in the
 business of creating and licensing software in the field of
 computational chemistry and represents and warrants to the
 licensee that it is not a competitor of Gaussian, Inc. and that
 it will not use this program in any manner prohibited above.
 ---------------------------------------------------------------
  

 Cite this work as:
 Gaussian 03, Revision B.05,
 M. J. Frisch, G. W. Trucks, H. B. Schlegel, G. E. Scuseria, 
 M. A. Robb, J. R. Cheeseman, J. A. Montgomery, Jr., T. Vreven, 
 K. N. Kudin, J. C. Burant, J. M. Millam, S. S. Iyengar, J. Tomasi, 
 V. Barone, B. Mennucci, M. Cossi, G. Scalmani, N. Rega, 
 G. A. Petersson, H. Nakatsuji, M. Hada, M. Ehara, K. Toyota, 
 R. Fukuda, J. Hasegawa, M. Ishida, T. Nakajima, Y. Honda, O. Kitao, 
 H. Nakai, M. Klene, X. Li, J. E. Knox, H. P. Hratchian, J. B. Cross, 
 C. Adamo, J. Jaramillo, R. Gomperts, R. E. Stratmann, O. Yazyev, 
 A. J. Austin, R. Cammi, C. Pomelli, J. W. Ochterski, P. Y. Ayala, 
 K. Morokuma, G. A. Voth, P. Salvador, J. J. Dannenberg, 
 V. G. Zakrzewski, S. Dapprich, A. D. Daniels, M. C. Strain, 
 O. Farkas, D. K. Malick, A. D. Rabuck, K. Raghavachari, 
 J. B. Foresman, J. V. Ortiz, Q. Cui, A. G. Baboul, S. Clifford, 
 J. Cioslowski, B. B. Stefanov, G. Liu, A. Liashenko, P. Piskorz, 
 I. Komaromi, R. L. Martin, D. J. Fox, T. Keith, M. A. Al-Laham, 
 C. Y. Peng, A. Nanayakkara, M. Challacombe, P. M. W. Gill, 
 B. Johnson, W. Chen, M. W. Wong, C. Gonzalez, and J. A. Pople, 
 Gaussian, Inc., Pittsburgh PA, 2003.
 
 *************************************************
 Gaussian 03:  x86_64-Linux-G03RevB.05  8-Nov-2003
                    10-Oct-2007 
 *************************************************
 -----------------------------------
 # zindo punch=mo iop(3/33=1) nosymm
 -----------------------------------
 1/30=1,38=1/1;
 2/15=1,17=6,18=5,40=1/2;
 3/5=2,12=3,16=1,25=1,33=1,41=400000/1,2,8,3;
 4/5=3,11=1,35=1/1;
 5/5=2,35=1,38=5/2;
 8/6=1/1;
 9/42=1,49=10/14;
 6/7=2,8=2,9=2,10=2/1;
 99/5=1,9=1,10=32/99;
 ----------------------------------------------------------------------
 04/10/07: Geometry from napthalene_b3lyp_of.log and reorientated to pu
 t long axi geometric centre on origin.
 ----------------------------------------------------------------------
 Symbolic Z-matrix:
 Charge =  0 Multiplicity = 1
 C                    -2.4336   -0.70848   0. 
 C                    -1.24478  -1.40258   0. 
 C                    0.        -0.71689   0. 
 C                     0.        0.71689   0. 
 C                    -1.24476   1.40257   0. 
 C                    -2.4336    0.70848   0. 
 H                     1.24204  -2.49027   0. 
 H                    -3.37834  -1.24559   0. 
 H                    -1.24204  -2.49028   0. 
 C                     1.24476  -1.40258   0. 
 C                     1.24478   1.40258   0. 
 H                    -1.24204   2.49027   0. 
 H                    -3.37833   1.24559   0. 
 C                     2.4336    0.70848   0. 
 C                     2.43359  -0.70848   0. 
 H                     1.24203   2.49028   0. 
 H                     3.37835   1.24559   0. 
 H                     3.37834  -1.24559   0. 
 C                    -2.4336   -0.70848   5.5 
 C                    -1.24478  -1.40258   5.5 
 C                    0.        -0.71689   5.5 
 C                     0.        0.71689   5.5 
 C                    -1.24476   1.40257   5.5 
 C                    -2.4336    0.70848   5.5 
 H                     1.24204  -2.49027   5.5 
 H                    -3.37834  -1.24559   5.5 
 H                    -1.24204  -2.49028   5.5 
 C                     1.24476  -1.40258   5.5 
 C                     1.24478   1.40258   5.5 
 H                    -1.24204   2.49027   5.5 
 H                    -3.37833   1.24559   5.5 
 C                     2.4336    0.70848   5.5 
 C                     2.43359  -0.70848   5.5 
 H                     1.24203   2.49028   5.5 
 H                     3.37835   1.24559   5.5 
 H                     3.37834  -1.24559   5.5 
 
                          Input orientation:                          
 ---------------------------------------------------------------------
 Center     Atomic     Atomic              Coordinates (Angstroms)
 Number     Number      Type              X           Y           Z
 ---------------------------------------------------------------------
    1          6             0       -2.433600   -0.708480    0.000000
    2          6             0       -1.244780   -1.402580    0.000000
    3          6             0       -0.000002   -0.716892    0.000000
    4          6             0        0.000002    0.716891    0.000000
    5          6             0       -1.244760    1.402570    0.000000
    6          6             0       -2.433600    0.708481    0.000000
    7          1             0        1.242040   -2.490270    0.000000
    8          1             0       -3.378340   -1.245590    0.000000
    9          1             0       -1.242040   -2.490280    0.000000
   10          6             0        1.244760   -1.402580    0.000000
   11          6             0        1.244780    1.402580    0.000000
   12          1             0       -1.242040    2.490270    0.000000
   13          1             0       -3.378330    1.245590    0.000000
   14          6             0        2.433600    0.708481    0.000000
   15          6             0        2.433590   -0.708480    0.000000
   16          1             0        1.242030    2.490280    0.000000
   17          1             0        3.378350    1.245590    0.000000
   18          1             0        3.378340   -1.245590    0.000000
   19          6             0       -2.433600   -0.708480    5.500000
   20          6             0       -1.244780   -1.402580    5.500000
   21          6             0       -0.000002   -0.716892    5.500000
   22          6             0        0.000002    0.716891    5.500000
   23          6             0       -1.244760    1.402570    5.500000
   24          6             0       -2.433600    0.708481    5.500000
   25          1             0        1.242040   -2.490270    5.500000
   26          1             0       -3.378340   -1.245590    5.500000
   27          1             0       -1.242040   -2.490280    5.500000
   28          6             0        1.244760   -1.402580    5.500000
   29          6             0        1.244780    1.402580    5.500000
   30          1             0       -1.242040    2.490270    5.500000
   31          1             0       -3.378330    1.245590    5.500000
   32          6             0        2.433600    0.708481    5.500000
   33          6             0        2.433590   -0.708480    5.500000
   34          1             0        1.242030    2.490280    5.500000
   35          1             0        3.378350    1.245590    5.500000
   36          1             0        3.378340   -1.245590    5.500000
 ---------------------------------------------------------------------
                    Distance matrix (angstroms):
                    1          2          3          4          5
     1  C    0.000000
     2  C    1.376615   0.000000
     3  C    2.433613   1.421141   0.000000
     4  C    2.820302   2.457975   1.433783   0.000000
     5  C    2.422782   2.805150   2.457955   1.421122   0.000000
     6  C    1.416961   2.422782   2.820299   2.433617   1.376626
     7  H    4.084741   2.714285   2.165072   3.439264   4.619348
     8  H    1.086748   2.139328   3.419458   3.906985   3.400723
     9  H    2.143508   1.087703   2.165078   3.439275   3.892851
    10  C    3.743275   2.489540   1.421126   2.457962   3.750543
    11  C    4.241115   3.750578   2.457975   1.421141   2.489540
    12  H    3.413476   3.892851   3.439265   2.165073   1.087703
    13  H    2.170462   3.400712   3.906973   3.419452   2.139337
    14  C    5.069262   4.241115   2.820302   2.433612   3.743273
    15  C    4.867190   3.743285   2.433606   2.820289   4.241084
    16  H    4.872609   4.619370   3.439272   2.165073   2.714266
    17  H    6.131652   5.327864   3.906993   3.419467   4.625774
    18  H    5.836706   4.625785   3.419461   3.906981   5.327833
    19  C    5.500000   5.669662   6.014355   6.180947   6.009981
    20  C    5.669662   5.500000   5.680637   6.024254   6.174048
    21  C    6.014355   5.680637   5.500000   5.683813   6.024246
    22  C    6.180947   6.024254   5.683813   5.500000   5.680633
    23  C    6.009981   6.174048   6.024246   5.680633   5.500000
    24  C    5.679593   6.009981   6.180946   6.014357   5.669665
    25  H    6.850920   6.133298   5.910798   6.486797   7.182505
    26  H    5.606338   5.901417   6.476318   6.746446   6.466445
    27  H    5.902934   5.606523   5.910801   6.486803   6.738270
    28  C    6.652977   6.037202   5.680634   6.024249   6.657070
    29  C    6.945290   6.657089   6.024255   5.680637   6.037202
    30  H    6.473161   6.738270   6.486798   5.910799   5.606523
    31  H    5.912775   6.466440   6.746439   6.476315   5.901420
    32  C    7.479800   6.945290   6.180947   6.014355   6.652976
    33  C    7.344354   6.652983   6.014353   6.180941   6.945271
    34  H    7.347947   7.182519   6.486802   5.910799   6.133289
    35  H    8.236938   7.657424   6.746451   6.476323   7.186640
    36  H    8.019796   7.186646   6.476320   6.746443   7.657402
                    6          7          8          9         10
     6  C    0.000000
     7  H    4.872611   0.000000
     8  H    2.170467   4.785096   0.000000
     9  H    3.413486   2.484080   2.472454   0.000000
    10  C    4.241098   1.087693   4.625765   2.714271   0.000000
    11  C    3.743294   3.892851   5.327855   4.619376   2.805160
    12  H    2.143499   5.565648   4.303537   4.980550   4.619357
    13  H    1.086739   5.941756   2.491180   4.303540   5.327829
    14  C    4.867200   3.413477   6.131643   4.872618   2.422792
    15  C    5.069252   2.143494   5.836696   4.084736   1.376623
    16  H    4.084735   4.980550   5.941763   5.565661   3.892861
    17  H    5.836716   4.303542   7.201308   5.941778   3.400737
    18  H    6.131643   2.472449   6.756680   4.785098   2.139348
    19  C    5.679593   6.850920   5.606338   5.902934   6.652977
    20  C    6.009981   6.133298   5.901417   5.606523   6.037202
    21  C    6.180946   5.910798   6.476318   5.910801   5.680634
    22  C    6.014357   6.486797   6.746446   6.486803   6.024249
    23  C    5.669665   7.182505   6.466445   6.738270   6.657070
    24  C    5.500000   7.347948   5.912777   6.473167   6.945280
    25  H    7.347948   5.500000   7.290208   6.034953   5.606521
    26  H    5.912777   7.290208   5.500000   6.030177   7.186633
    27  H    6.473167   6.034953   6.030177   5.500000   6.133292
    28  C    6.945280   5.606521   7.186633   6.133292   5.500000
    29  C    6.652988   6.738270   7.657418   7.182523   6.174052
    30  H    5.902930   7.824732   6.983583   7.419965   7.182510
    31  H    5.606336   8.096571   6.037879   6.983585   7.657399
    32  C    7.344361   6.473162   8.236931   7.347952   6.009985
    33  C    7.479794   5.902929   8.019789   6.850917   5.669664
    34  H    6.850917   7.419965   8.096576   7.824742   6.738276
    35  H    8.019804   6.983586   9.061393   8.096587   6.466453
    36  H    8.236931   6.030175   8.712217   7.290210   5.901424
                   11         12         13         14         15
    11  C    0.000000
    12  H    2.714285   0.000000
    13  H    4.625775   2.472441   0.000000
    14  C    1.376614   4.084740   5.836696   0.000000
    15  C    2.422776   4.872603   6.131623   1.416961   0.000000
    16  H    1.087703   2.484070   4.785079   2.143513   3.413485
    17  H    2.139338   4.785105   6.756680   1.086756   2.170475
    18  H    3.400718   5.941764   7.201289   2.170467   1.086757
    19  C    6.945290   6.473161   5.912775   7.479800   7.344354
    20  C    6.657089   6.738270   6.466440   6.945290   6.652983
    21  C    6.024255   6.486798   6.746439   6.180947   6.014353
    22  C    5.680637   5.910799   6.476315   6.014355   6.180941
    23  C    6.037202   5.606523   5.901420   6.652976   6.945271
    24  C    6.652988   5.902930   5.606336   7.344361   7.479794
    25  H    6.738270   7.824732   8.096571   6.473162   5.902929
    26  H    7.657418   6.983583   6.037879   8.236931   8.019789
    27  H    7.182523   7.419965   6.983585   7.347952   6.850917
    28  C    6.174052   7.182510   7.657399   6.009985   5.669664
    29  C    5.500000   6.133298   7.186640   5.669662   6.009979
    30  H    6.133298   5.500000   6.030171   6.850920   7.347942
    31  H    7.186640   6.030171   5.500000   8.019789   8.236917
    32  C    5.669662   6.850920   8.019789   5.500000   5.679593
    33  C    6.009979   7.347942   8.236917   5.679593   5.500000
    34  H    5.606523   6.034949   7.290198   5.902935   6.473166
    35  H    5.901421   7.290215   8.712217   5.606339   5.912779
    36  H    6.466443   8.096577   9.061378   5.912777   5.606339
                   16         17         18         19         20
    16  H    0.000000
    17  H    2.472472   0.000000
    18  H    4.303550   2.491180   0.000000
    19  C    7.347947   8.236938   8.019796   0.000000
    20  C    7.182519   7.657424   7.186646   1.376615   0.000000
    21  C    6.486802   6.746451   6.476320   2.433613   1.421141
    22  C    5.910799   6.476323   6.746443   2.820302   2.457975
    23  C    6.133289   7.186640   7.657402   2.422782   2.805150
    24  C    6.850917   8.019804   8.236931   1.416961   2.422782
    25  H    7.419965   6.983586   6.030175   4.084741   2.714285
    26  H    8.096576   9.061393   8.712217   1.086748   2.139328
    27  H    7.824742   8.096587   7.290210   2.143508   1.087703
    28  C    6.738276   6.466453   5.901424   3.743275   2.489540
    29  C    5.606523   5.901421   6.466443   4.241115   3.750578
    30  H    6.034949   7.290215   8.096577   3.413476   3.892851
    31  H    7.290198   8.712217   9.061378   2.170462   3.400712
    32  C    5.902935   5.606339   5.912777   5.069262   4.241115
    33  C    6.473166   5.912779   5.606339   4.867190   3.743285
    34  H    5.500000   6.030184   6.983591   4.872609   4.619370
    35  H    6.030184   5.500000   6.037879   6.131652   5.327864
    36  H    6.983591   6.037879   5.500000   5.836706   4.625785
                   21         22         23         24         25
    21  C    0.000000
    22  C    1.433783   0.000000
    23  C    2.457955   1.421122   0.000000
    24  C    2.820299   2.433617   1.376626   0.000000
    25  H    2.165072   3.439264   4.619348   4.872611   0.000000
    26  H    3.419458   3.906985   3.400723   2.170467   4.785096
    27  H    2.165078   3.439275   3.892851   3.413486   2.484080
    28  C    1.421126   2.457962   3.750543   4.241098   1.087693
    29  C    2.457975   1.421141   2.489540   3.743294   3.892851
    30  H    3.439265   2.165073   1.087703   2.143499   5.565648
    31  H    3.906973   3.419452   2.139337   1.086739   5.941756
    32  C    2.820302   2.433612   3.743273   4.867200   3.413477
    33  C    2.433606   2.820289   4.241084   5.069252   2.143494
    34  H    3.439272   2.165073   2.714266   4.084735   4.980550
    35  H    3.906993   3.419467   4.625774   5.836716   4.303542
    36  H    3.419461   3.906981   5.327833   6.131643   2.472449
                   26         27         28         29         30
    26  H    0.000000
    27  H    2.472454   0.000000
    28  C    4.625765   2.714271   0.000000
    29  C    5.327855   4.619376   2.805160   0.000000
    30  H    4.303537   4.980550   4.619357   2.714285   0.000000
    31  H    2.491180   4.303540   5.327829   4.625775   2.472441
    32  C    6.131643   4.872618   2.422792   1.376614   4.084740
    33  C    5.836696   4.084736   1.376623   2.422776   4.872603
    34  H    5.941763   5.565661   3.892861   1.087703   2.484070
    35  H    7.201308   5.941778   3.400737   2.139338   4.785105
    36  H    6.756680   4.785098   2.139348   3.400718   5.941764
                   31         32         33         34         35
    31  H    0.000000
    32  C    5.836696   0.000000
    33  C    6.131623   1.416961   0.000000
    34  H    4.785079   2.143513   3.413485   0.000000
    35  H    6.756680   1.086756   2.170475   2.472472   0.000000
    36  H    7.201289   2.170467   1.086757   4.303550   2.491180
                   36
    36  H    0.000000
 Symmetry turned off by external request.
 Stoichiometry    C20H16
 Framework group  CS[X(C20H16)]
 Deg. of freedom    51
 Full point group                 CS      NOp   2
 Rotational constants (GHZ):      0.4410042      0.2235038      0.1831945
 Standard basis: VSTO-6G (5D, 7F)
                         Coordinates in L301:                         
 ---------------------------------------------------------------------
 Center     Atomic     Atomic              Coordinates (Angstroms)
 Number     Number      Type              X           Y           Z
 ---------------------------------------------------------------------
    1          6             0       -2.433600   -0.708480    0.000000
    2          6             0       -1.244780   -1.402580    0.000000
    3          6             0       -0.000002   -0.716892    0.000000
    4          6             0        0.000002    0.716891    0.000000
    5          6             0       -1.244760    1.402570    0.000000
    6          6             0       -2.433600    0.708481    0.000000
    7          1             0        1.242040   -2.490270    0.000000
    8          1             0       -3.378340   -1.245590    0.000000
    9          1             0       -1.242040   -2.490280    0.000000
   10          6             0        1.244760   -1.402580    0.000000
   11          6             0        1.244780    1.402580    0.000000
   12          1             0       -1.242040    2.490270    0.000000
   13          1             0       -3.378330    1.245590    0.000000
   14          6             0        2.433600    0.708481    0.000000
   15          6             0        2.433590   -0.708480    0.000000
   16          1             0        1.242030    2.490280    0.000000
   17          1             0        3.378350    1.245590    0.000000
   18          1             0        3.378340   -1.245590    0.000000
   19          6             0       -2.433600   -0.708480    5.500000
   20          6             0       -1.244780   -1.402580    5.500000
   21          6             0       -0.000002   -0.716892    5.500000
   22          6             0        0.000002    0.716891    5.500000
   23          6             0       -1.244760    1.402570    5.500000
   24          6             0       -2.433600    0.708481    5.500000
   25          1             0        1.242040   -2.490270    5.500000
   26          1             0       -3.378340   -1.245590    5.500000
   27          1             0       -1.242040   -2.490280    5.500000
   28          6             0        1.244760   -1.402580    5.500000
   29          6             0        1.244780    1.402580    5.500000
   30          1             0       -1.242040    2.490270    5.500000
   31          1             0       -3.378330    1.245590    5.500000
   32          6             0        2.433600    0.708481    5.500000
   33          6             0        2.433590   -0.708480    5.500000
   34          1             0        1.242030    2.490280    5.500000
   35          1             0        3.378350    1.245590    5.500000
   36          1             0        3.378340   -1.245590    5.500000
 ---------------------------------------------------------------------
 LdAtmC:  AtmChg=     4.000000     4.000000     4.000000     4.000000     4.000000
 LdAtmC:  AtmChg=     4.000000     1.000000     1.000000     1.000000     4.000000
 LdAtmC:  AtmChg=     4.000000     1.000000     1.000000     4.000000     4.000000
 LdAtmC:  AtmChg=     1.000000     1.000000     1.000000     4.000000     4.000000
 LdAtmC:  AtmChg=     4.000000     4.000000     4.000000     4.000000     1.000000
 LdAtmC:  AtmChg=     1.000000     1.000000     4.000000     4.000000     1.000000
 LdAtmC:  AtmChg=     1.000000     4.000000     4.000000     1.000000     1.000000
 LdAtmC:  AtmChg=     1.000000
 AtZEff=  -3.9000000  -3.9000000  -3.9000000  -3.9000000  -3.9000000  -3.9000000  -1.0000000  -1.0000000  -1.0000000  -3.9000000
 AtZEff=  -3.9000000  -1.0000000  -1.0000000  -3.9000000  -3.9000000  -1.0000000  -1.0000000  -1.0000000  -3.9000000  -3.9000000
 AtZEff=  -3.9000000  -3.9000000  -3.9000000  -3.9000000  -1.0000000  -1.0000000  -1.0000000  -3.9000000  -3.9000000  -1.0000000
 AtZEff=  -1.0000000  -3.9000000  -3.9000000  -1.0000000  -1.0000000  -1.0000000
 Integral buffers will be    131072 words long.
 Regular integral format.
 Two-electron integral symmetry is turned off.
    96 basis functions,   576 primitive gaussians,    96 cartesian basis functions
    48 alpha electrons       48 beta electrons
       nuclear repulsion energy       645.6116184338 Hartrees.
 Do NDO integrals.
 NPDir=0 NMtPBC=     1 NCelOv=     1 NCel=       1 NClECP=     1 NCelD=      1
         NCelK=      1 NCelE2=     1 NClLst=     1 CellRange=     0.0.
 One-electron integrals computed using PRISM.
 Entering OneElI...
 Calculate overlap and kinetic energy integrals
    NBasis =  96  MinDer = 0  MaxDer = 0
 Requested accuracy = 0.1000D-12
 PrsmSu:  NPrtUS=   1 ThrOK=F
 PRISM was handed     5704742 working-precision words and  1596 shell-pairs
 *** Overlap *** 
                1             2             3             4             5
      1  0.100000D+01
      2  0.000000D+00  0.100000D+01
      3  0.000000D+00  0.000000D+00  0.100000D+01
      4  0.000000D+00  0.000000D+00  0.000000D+00  0.100000D+01
      5  0.418191D+00  0.363502D+00 -0.212233D+00  0.000000D+00  0.100000D+01
      6 -0.363502D+00 -0.180916D+00  0.253964D+00  0.000000D+00  0.000000D+00
      7  0.212233D+00  0.253964D+00  0.105782D+00  0.000000D+00  0.000000D+00
      8  0.000000D+00  0.000000D+00  0.000000D+00  0.254061D+00  0.000000D+00
      9  0.846391D-01  0.110523D+00 -0.382034D-03  0.000000D+00  0.396101D+00
     10 -0.110523D+00 -0.138570D+00  0.594126D-03  0.000000D+00 -0.355765D+00
     11  0.382034D-03  0.594126D-03  0.333092D-01  0.000000D+00 -0.195974D+00
     12  0.000000D+00  0.000000D+00  0.000000D+00  0.333113D-01  0.000000D+00
     13  0.416121D-01  0.490741D-01  0.287429D-01  0.000000D+00  0.810676D-01
     14 -0.490741D-01 -0.527411D-01 -0.393103D-01  0.000000D+00 -0.537875D-01
     15 -0.287429D-01 -0.393103D-01 -0.864900D-02  0.000000D+00 -0.915831D-01
     16  0.000000D+00  0.000000D+00  0.000000D+00  0.143752D-01  0.000000D+00
     17  0.862706D-01  0.551960D-01  0.980127D-01  0.000000D+00  0.428279D-01
     18 -0.551960D-01 -0.801020D-02 -0.747485D-01  0.000000D+00  0.000000D+00
     19 -0.980127D-01 -0.747485D-01 -0.986481D-01  0.000000D+00 -0.584429D-01
     20  0.000000D+00  0.000000D+00  0.000000D+00  0.340845D-01  0.000000D+00
     21  0.398147D+00  0.000000D+00  0.407575D+00  0.000000D+00  0.862707D-01
     22  0.000000D+00  0.237410D+00  0.000000D+00  0.000000D+00  0.551950D-01
     23 -0.407575D+00  0.000000D+00 -0.331866D+00  0.000000D+00 -0.980133D-01
     24  0.000000D+00  0.000000D+00  0.000000D+00  0.237410D+00  0.000000D+00
     25  0.333994D-02  0.419336D-02 -0.203276D-02  0.000000D+00  0.460693D-01
     26  0.520724D+00 -0.425568D+00 -0.241947D+00  0.000000D+00  0.122081D+00
     27  0.121262D+00  0.818767D-01 -0.122434D+00  0.000000D+00  0.520189D+00
     28  0.632579D-02  0.913905D-02 -0.172452D-02  0.000000D+00  0.766371D-01
     29 -0.913905D-02 -0.130801D-01  0.278265D-02  0.000000D+00 -0.100826D+00
     30  0.172452D-02  0.278265D-02  0.114141D-02  0.000000D+00  0.000000D+00
     31  0.000000D+00  0.000000D+00  0.000000D+00  0.166649D-02  0.000000D+00
     32  0.207463D-02  0.271691D-02  0.155926D-02  0.000000D+00  0.622624D-02
     33 -0.271691D-02 -0.344846D-02 -0.225274D-02  0.000000D+00 -0.607896D-02
     34 -0.155926D-02 -0.225274D-02 -0.816083D-03  0.000000D+00 -0.684958D-02
     35  0.000000D+00  0.000000D+00  0.000000D+00  0.476789D-03  0.000000D+00
     36  0.126733D-01  0.593732D-02  0.159388D-01  0.000000D+00  0.493725D-02
     37  0.116094D+00 -0.615787D-01  0.127369D+00  0.000000D+00  0.129872D-01
     38  0.279191D-03  0.415846D-03  0.121063D-03  0.000000D+00  0.207463D-02
     39 -0.415846D-03 -0.620709D-03 -0.195609D-03  0.000000D+00 -0.271691D-02
     40 -0.121063D-03 -0.195609D-03 -0.574568D-05  0.000000D+00 -0.155926D-02
     41  0.000000D+00  0.000000D+00  0.000000D+00  0.512010D-04  0.000000D+00
     42  0.463427D-03  0.715545D-03  0.000000D+00  0.000000D+00  0.632565D-02
     43 -0.715545D-03 -0.111338D-02  0.000000D+00  0.000000D+00 -0.913886D-02
     44  0.000000D+00  0.000000D+00  0.898024D-04  0.000000D+00 -0.172448D-02
     45  0.000000D+00  0.000000D+00  0.000000D+00  0.898024D-04  0.000000D+00
     46  0.615270D-03  0.675946D-03  0.588250D-03  0.000000D+00  0.107651D-02
     47  0.303512D-04  0.440305D-04  0.148037D-04  0.000000D+00  0.216579D-03
     48  0.635625D-04  0.960250D-04 -0.887414D-05  0.000000D+00  0.106156D-02
     49  0.913639D-04  0.000000D+00  0.000000D+00  0.142641D-03  0.580472D-04
     50  0.000000D+00  0.148922D-04  0.000000D+00  0.000000D+00  0.190263D-04
     51  0.000000D+00  0.000000D+00  0.148922D-04  0.000000D+00 -0.111086D-04
     52 -0.142641D-03  0.000000D+00  0.000000D+00 -0.224758D-03 -0.880241D-04
     53  0.580472D-04  0.190263D-04 -0.111086D-04  0.880241D-04  0.913639D-04
     54 -0.190263D-04  0.233861D-05  0.390637D-05 -0.309538D-04  0.000000D+00
     55  0.111086D-04  0.390637D-05  0.674849D-05  0.180726D-04  0.000000D+00
     56 -0.880241D-04 -0.309538D-04  0.180726D-04 -0.134177D-03 -0.142641D-03
     57  0.225609D-04  0.142775D-04  0.000000D+00  0.322675D-04  0.563539D-04
     58 -0.142775D-04 -0.644783D-05  0.000000D+00 -0.217756D-04 -0.193045D-04
     59  0.000000D+00  0.000000D+00  0.318717D-05  0.000000D+00 -0.106339D-04
     60 -0.322675D-04 -0.217756D-04  0.000000D+00 -0.460262D-04 -0.852961D-04
     61  0.141280D-04  0.869349D-05  0.509181D-05  0.196475D-04  0.219466D-04
     62 -0.869349D-05 -0.378467D-05 -0.333159D-05 -0.128554D-04 -0.709221D-05
     63 -0.509181D-05 -0.333159D-05  0.000000D+00 -0.752948D-05 -0.120758D-04
     64 -0.196475D-04 -0.128554D-04 -0.752948D-05 -0.271501D-04 -0.313365D-04
     65  0.228376D-04  0.706546D-05  0.125463D-04  0.326874D-04  0.144066D-04
     66 -0.706546D-05  0.000000D+00 -0.413951D-05 -0.107848D-04  0.000000D+00
     67 -0.125463D-04 -0.413951D-05 -0.412026D-05 -0.191509D-04 -0.102303D-04
     68 -0.326874D-04 -0.107848D-04 -0.191509D-04 -0.466641D-04 -0.200583D-04
     69  0.565129D-04  0.000000D+00  0.220407D-04  0.855521D-04  0.228376D-04
     70  0.000000D+00  0.876647D-05  0.000000D+00  0.000000D+00  0.706535D-05
     71 -0.220407D-04  0.000000D+00  0.000000D+00 -0.357908D-04 -0.125464D-04
     72 -0.855521D-04  0.000000D+00 -0.357908D-04 -0.130157D-03 -0.326874D-04
     73  0.457369D-05  0.380218D-05 -0.184313D-05  0.568935D-05  0.302244D-04
     74  0.111582D-03 -0.282949D-04 -0.160864D-04  0.164724D-03  0.541441D-04
     75  0.539403D-04  0.165546D-04 -0.247550D-04  0.764129D-04  0.111532D-03
     76  0.360020D-05  0.309331D-05  0.000000D+00  0.462521D-05  0.211675D-04
     77 -0.309331D-05 -0.238132D-05  0.000000D+00 -0.419172D-05 -0.136509D-04
     78  0.000000D+00  0.000000D+00  0.000000D+00  0.000000D+00  0.000000D+00
     79 -0.462521D-05 -0.419172D-05  0.000000D+00 -0.584552D-05 -0.301581D-04
     80  0.149609D-05  0.122344D-05  0.000000D+00  0.182931D-05  0.355662D-05
     81 -0.122344D-05  0.000000D+00  0.000000D+00 -0.156992D-05 -0.206681D-05
     82  0.000000D+00  0.000000D+00  0.000000D+00  0.000000D+00 -0.232882D-05
     83 -0.182931D-05 -0.156992D-05  0.000000D+00 -0.218721D-05 -0.456605D-05
     84  0.125587D-04  0.356494D-05  0.957011D-05  0.164551D-04  0.620498D-05
     85  0.526358D-04 -0.127906D-04  0.264559D-04  0.744638D-04  0.127823D-04
     86  0.000000D+00  0.000000D+00  0.000000D+00  0.000000D+00  0.149609D-05
     87  0.000000D+00  0.000000D+00  0.000000D+00  0.000000D+00 -0.122343D-05
     88  0.000000D+00  0.000000D+00  0.000000D+00  0.000000D+00  0.000000D+00
     89  0.000000D+00  0.000000D+00  0.000000D+00  0.000000D+00 -0.182931D-05
     90  0.000000D+00  0.000000D+00  0.000000D+00  0.000000D+00  0.360015D-05
     91  0.000000D+00  0.000000D+00  0.000000D+00  0.000000D+00 -0.309326D-05
     92  0.000000D+00  0.000000D+00  0.000000D+00  0.000000D+00  0.000000D+00
     93  0.000000D+00  0.000000D+00  0.000000D+00  0.000000D+00 -0.462513D-05
     94  0.114370D-05  0.000000D+00  0.000000D+00  0.132652D-05  0.182764D-05
     95  0.000000D+00  0.000000D+00  0.000000D+00  0.000000D+00  0.000000D+00
     96  0.000000D+00  0.000000D+00  0.000000D+00  0.000000D+00  0.180656D-05
                6             7             8             9            10
      6  0.100000D+01
      7  0.000000D+00  0.100000D+01
      8  0.000000D+00  0.000000D+00  0.100000D+01
      9  0.355765D+00  0.195974D+00  0.000000D+00  0.100000D+01
     10 -0.199856D+00 -0.239946D+00  0.000000D+00  0.000000D+00  0.100000D+01
     11 -0.239946D+00  0.103561D+00  0.000000D+00  0.000000D+00  0.000000D+00
     12  0.000000D+00  0.000000D+00  0.235736D+00  0.000000D+00  0.000000D+00
     13  0.537875D-01  0.915831D-01  0.000000D+00  0.389948D+00  0.117580D-05
     14 -0.107884D-01 -0.722277D-01  0.000000D+00 -0.117580D-05  0.230728D+00
     15 -0.722277D-01 -0.913494D-01  0.000000D+00 -0.401898D+00 -0.164752D-05
     16  0.000000D+00  0.000000D+00  0.316316D-01  0.000000D+00  0.000000D+00
     17  0.000000D+00  0.584429D-01  0.000000D+00  0.810704D-01 -0.537887D-01
     18  0.148673D-01  0.000000D+00  0.000000D+00  0.537887D-01 -0.107874D-01
     19  0.000000D+00 -0.777017D-01  0.000000D+00 -0.915865D-01  0.722294D-01
     20  0.000000D+00  0.000000D+00  0.148673D-01  0.000000D+00  0.000000D+00
     21 -0.551950D-01  0.980133D-01  0.000000D+00  0.416123D-01 -0.490743D-01
     22 -0.800879D-02  0.747477D-01  0.000000D+00  0.490743D-01 -0.527412D-01
     23  0.747477D-01 -0.986495D-01  0.000000D+00 -0.287431D-01  0.393105D-01
     24  0.000000D+00  0.000000D+00  0.340845D-01  0.000000D+00  0.000000D+00
     25  0.541424D-01 -0.236809D-01  0.000000D+00  0.117112D+00  0.818180D-01
     26 -0.147808D+00  0.108759D-01  0.000000D+00  0.125287D-01 -0.166183D-01
     27  0.123245D-02 -0.489247D+00  0.000000D+00  0.117111D+00 -0.818167D-01
     28  0.100826D+00  0.000000D+00  0.000000D+00  0.396108D+00  0.355768D+00
     29 -0.127715D+00  0.000000D+00  0.000000D+00 -0.355768D+00 -0.199851D+00
     30  0.000000D+00  0.295730D-01  0.000000D+00  0.195978D+00  0.239950D+00
     31  0.000000D+00  0.000000D+00  0.295730D-01  0.000000D+00  0.000000D+00
     32  0.607896D-02  0.684958D-02  0.000000D+00  0.810675D-01  0.537874D-01
     33 -0.499051D-02 -0.746761D-02  0.000000D+00 -0.537874D-01 -0.107883D-01
     34 -0.746761D-02 -0.677733D-02  0.000000D+00 -0.915831D-01 -0.722276D-01
     35  0.000000D+00  0.000000D+00  0.163695D-02  0.000000D+00  0.000000D+00
     36  0.479566D-05  0.681342D-02  0.000000D+00  0.120610D-01 -0.585455D-02
     37 -0.109270D-01  0.135626D-01  0.000000D+00  0.479855D-02 -0.573066D-02
     38  0.271691D-02  0.155926D-02  0.000000D+00  0.416121D-01  0.490740D-01
     39 -0.344846D-02 -0.225274D-02  0.000000D+00 -0.490740D-01 -0.527410D-01
     40 -0.225274D-02 -0.816084D-03  0.000000D+00 -0.287429D-01 -0.393103D-01
     41  0.000000D+00  0.000000D+00  0.476788D-03  0.000000D+00  0.000000D+00
     42  0.913886D-02  0.172448D-02  0.000000D+00  0.846401D-01  0.110524D+00
     43 -0.130798D-01 -0.278258D-02  0.000000D+00 -0.110524D+00 -0.138571D+00
     44 -0.278258D-02  0.114138D-02  0.000000D+00 -0.382039D-03 -0.594133D-03
     45  0.000000D+00  0.000000D+00  0.166645D-02  0.000000D+00  0.000000D+00
     46  0.832971D-03  0.130394D-02  0.000000D+00  0.120608D-01  0.585443D-02
     47  0.279621D-03  0.160170D-03  0.000000D+00  0.479835D-02  0.573044D-02
     48  0.152544D-02  0.518003D-04  0.000000D+00  0.125287D-01  0.166182D-01
     49 -0.190263D-04  0.111086D-04  0.880241D-04  0.225609D-04 -0.142775D-04
     50  0.233861D-05  0.390637D-05  0.309538D-04  0.142775D-04 -0.644783D-05
     51  0.390637D-05  0.674849D-05 -0.180726D-04  0.000000D+00  0.000000D+00
     52  0.309538D-04 -0.180726D-04 -0.134177D-03 -0.322675D-04  0.217756D-04
     53  0.000000D+00  0.000000D+00  0.142641D-03  0.563539D-04 -0.193045D-04
     54  0.148922D-04  0.000000D+00  0.000000D+00  0.193045D-04  0.164599D-05
     55  0.000000D+00  0.148922D-04  0.000000D+00  0.106339D-04 -0.390735D-05
     56  0.000000D+00  0.000000D+00 -0.224758D-03 -0.852961D-04  0.313414D-04
     57  0.193045D-04  0.106339D-04  0.852961D-04  0.913639D-04  0.000000D+00
     58  0.164599D-05 -0.390735D-05 -0.313414D-04  0.000000D+00  0.148922D-04
     59 -0.390735D-05  0.658690D-05 -0.172644D-04  0.000000D+00  0.000000D+00
     60 -0.313414D-04 -0.172644D-04 -0.129741D-03 -0.142641D-03  0.000000D+00
     61  0.709221D-05  0.120758D-04  0.313365D-04  0.558728D-04  0.000000D+00
     62  0.000000D+00 -0.416070D-05 -0.107970D-04  0.000000D+00  0.865706D-05
     63 -0.416070D-05 -0.399251D-05 -0.183838D-04 -0.220339D-04  0.000000D+00
     64 -0.107970D-04 -0.183838D-04 -0.446139D-04 -0.845221D-04  0.000000D+00
     65  0.000000D+00  0.102303D-04  0.200583D-04  0.219471D-04 -0.709225D-05
     66  0.194491D-05  0.000000D+00  0.000000D+00  0.709225D-05  0.000000D+00
     67  0.000000D+00 -0.578061D-05 -0.151473D-04 -0.120760D-04  0.416071D-05
     68  0.000000D+00 -0.151473D-04 -0.277540D-04 -0.313373D-04  0.107970D-04
     69 -0.706535D-05  0.125464D-04  0.326874D-04  0.141280D-04 -0.869351D-05
     70  0.000000D+00  0.413947D-05  0.107847D-04  0.869351D-05 -0.378466D-05
     71  0.413947D-05 -0.412034D-05 -0.191510D-04 -0.509184D-05  0.333161D-05
     72  0.107847D-04 -0.191510D-04 -0.466642D-04 -0.196476D-04  0.128555D-04
     73  0.187569D-04 -0.820392D-05  0.414838D-04  0.528953D-04  0.169034D-04
     74 -0.297603D-04  0.218980D-05  0.767176D-04  0.124551D-04 -0.100196D-04
     75  0.000000D+00 -0.325611D-04  0.164646D-03  0.528950D-04 -0.169032D-04
     76  0.136509D-04  0.000000D+00  0.301581D-04  0.563544D-04  0.193044D-04
     77 -0.641290D-05  0.000000D+00 -0.207317D-04 -0.193044D-04  0.164619D-05
     78  0.000000D+00  0.297117D-05  0.000000D+00  0.106340D-04  0.390734D-05
     79 -0.207317D-04  0.000000D+00 -0.428302D-04 -0.852970D-04 -0.313413D-04
     80  0.206681D-05  0.232882D-05  0.456605D-05  0.219466D-04  0.709221D-05
     81  0.000000D+00 -0.142736D-05 -0.279859D-05 -0.709221D-05  0.000000D+00
     82 -0.142736D-05 -0.119187D-05 -0.315336D-05 -0.120758D-04 -0.416070D-05
     83 -0.279859D-05 -0.315336D-05 -0.576627D-05 -0.313365D-04 -0.107969D-04
     84  0.000000D+00  0.554883D-05  0.783964D-05  0.121167D-04 -0.357848D-05
     85 -0.650283D-05  0.807134D-05  0.167634D-04  0.606991D-05 -0.470531D-05
     86  0.122343D-05  0.000000D+00  0.182931D-05  0.141280D-04  0.869348D-05
     87  0.000000D+00  0.000000D+00 -0.156991D-05 -0.869348D-05 -0.378466D-05
     88  0.000000D+00  0.000000D+00  0.000000D+00 -0.509182D-05 -0.333160D-05
     89 -0.156991D-05  0.000000D+00 -0.218721D-05 -0.196475D-04 -0.128554D-04
     90  0.309326D-05  0.000000D+00  0.462513D-05  0.225611D-04  0.142775D-04
     91 -0.238129D-05  0.000000D+00 -0.419166D-05 -0.142775D-04 -0.644783D-05
     92  0.000000D+00  0.000000D+00  0.000000D+00  0.000000D+00  0.000000D+00
     93 -0.419166D-05  0.000000D+00 -0.584542D-05 -0.322677D-04 -0.217757D-04
     94  0.000000D+00  0.153616D-05  0.217035D-05  0.121166D-04  0.357843D-05
     95  0.000000D+00  0.000000D+00  0.000000D+00  0.606972D-05  0.470519D-05
     96  0.180223D-05  0.000000D+00  0.214406D-05  0.124550D-04  0.100196D-04
               11            12            13            14            15
     11  0.100000D+01
     12  0.000000D+00  0.100000D+01
     13  0.401898D+00  0.000000D+00  0.100000D+01
     14 -0.164752D-05  0.000000D+00  0.000000D+00  0.100000D+01
     15 -0.332405D+00  0.000000D+00  0.000000D+00  0.000000D+00  0.100000D+01
     16  0.000000D+00  0.230728D+00  0.000000D+00  0.000000D+00  0.000000D+00
     17  0.915865D-01  0.000000D+00  0.396110D+00 -0.355770D+00  0.195976D+00
     18  0.722294D-01  0.000000D+00  0.355770D+00 -0.199853D+00  0.239949D+00
     19 -0.913529D-01  0.000000D+00 -0.195976D+00  0.239949D+00  0.103567D+00
     20  0.000000D+00  0.316329D-01  0.000000D+00  0.000000D+00  0.000000D+00
     21  0.287431D-01  0.000000D+00  0.846385D-01 -0.110522D+00 -0.381940D-03
     22  0.393105D-01  0.000000D+00  0.110522D+00 -0.138569D+00 -0.593980D-03
     23 -0.864913D-02  0.000000D+00  0.381940D-03 -0.593980D-03  0.333089D-01
     24  0.000000D+00  0.143753D-01  0.000000D+00  0.000000D+00  0.000000D+00
     25 -0.116819D+00  0.000000D+00  0.120610D-01  0.585456D-02 -0.151175D-01
     26 -0.260071D-02  0.000000D+00  0.479844D-02 -0.573053D-02 -0.332887D-02
     27 -0.116818D+00  0.000000D+00  0.120608D-01 -0.585444D-02 -0.151172D-01
     28 -0.195978D+00  0.000000D+00  0.810694D-01  0.537878D-01 -0.915855D-01
     29  0.239950D+00  0.000000D+00 -0.537878D-01 -0.107871D-01  0.722284D-01
     30  0.103563D+00  0.000000D+00  0.915855D-01  0.722284D-01 -0.913522D-01
     31  0.000000D+00  0.235741D+00  0.000000D+00  0.000000D+00  0.000000D+00
     32  0.915831D-01  0.000000D+00  0.396101D+00  0.355765D+00  0.195974D+00
     33 -0.722276D-01  0.000000D+00 -0.355765D+00 -0.199855D+00 -0.239946D+00
     34 -0.913494D-01  0.000000D+00 -0.195974D+00 -0.239946D+00  0.103561D+00
     35  0.000000D+00  0.316315D-01  0.000000D+00  0.000000D+00  0.000000D+00
     36  0.151175D-01  0.000000D+00  0.117112D+00 -0.818178D-01  0.116819D+00
     37  0.332896D-02  0.000000D+00  0.125289D-01 -0.166185D-01  0.260075D-02
     38  0.287429D-01  0.000000D+00  0.846392D-01  0.110523D+00 -0.381944D-03
     39 -0.393103D-01  0.000000D+00 -0.110523D+00 -0.138570D+00  0.593985D-03
     40 -0.864905D-02  0.000000D+00  0.381944D-03  0.593985D-03  0.333093D-01
     41  0.000000D+00  0.143752D-01  0.000000D+00  0.000000D+00  0.000000D+00
     42  0.382039D-03  0.000000D+00  0.416131D-01  0.490752D-01 -0.287437D-01
     43 -0.594133D-03  0.000000D+00 -0.490752D-01 -0.527420D-01  0.393113D-01
     44  0.333097D-01  0.000000D+00  0.287437D-01  0.393113D-01 -0.864931D-02
     45  0.000000D+00  0.333117D-01  0.000000D+00  0.000000D+00  0.000000D+00
     46  0.151173D-01  0.000000D+00  0.117112D+00  0.818169D-01  0.116820D+00
     47  0.332881D-02  0.000000D+00  0.125285D-01  0.166180D-01  0.260066D-02
     48 -0.260069D-02  0.000000D+00  0.479848D-02  0.573058D-02 -0.332890D-02
     49  0.000000D+00  0.322675D-04  0.141280D-04 -0.869349D-05 -0.509181D-05
     50  0.000000D+00  0.217756D-04  0.869349D-05 -0.378467D-05 -0.333159D-05
     51  0.318717D-05  0.000000D+00  0.509181D-05 -0.333159D-05  0.000000D+00
     52  0.000000D+00 -0.460262D-04 -0.196475D-04  0.128554D-04  0.752948D-05
     53 -0.106339D-04  0.852961D-04  0.219466D-04 -0.709221D-05 -0.120758D-04
     54 -0.390735D-05  0.313414D-04  0.709221D-05  0.000000D+00 -0.416070D-05
     55  0.658690D-05  0.172644D-04  0.120758D-04 -0.416070D-05 -0.399251D-05
     56  0.172644D-04 -0.129741D-03 -0.313365D-04  0.107970D-04  0.183838D-04
     57  0.000000D+00  0.142641D-03  0.558728D-04  0.000000D+00 -0.220339D-04
     58  0.000000D+00  0.000000D+00  0.000000D+00  0.865706D-05  0.000000D+00
     59  0.148922D-04  0.000000D+00  0.220339D-04  0.000000D+00  0.000000D+00
     60  0.000000D+00 -0.224758D-03 -0.845221D-04  0.000000D+00  0.357512D-04
     61  0.220339D-04  0.845221D-04  0.913639D-04  0.000000D+00  0.000000D+00
     62  0.000000D+00  0.000000D+00  0.000000D+00  0.148922D-04  0.000000D+00
     63  0.000000D+00 -0.357512D-04  0.000000D+00  0.000000D+00  0.148922D-04
     64 -0.357512D-04 -0.128485D-03 -0.142641D-03  0.000000D+00  0.000000D+00
     65  0.120760D-04  0.313373D-04  0.563546D-04 -0.193045D-04  0.106339D-04
     66  0.416071D-05  0.107970D-04  0.193045D-04  0.164619D-05  0.390730D-05
     67 -0.399256D-05 -0.183842D-04 -0.106339D-04  0.390730D-05  0.658705D-05
     68 -0.183842D-04 -0.446151D-04 -0.852972D-04  0.313414D-04 -0.172645D-04
     69  0.509184D-05  0.196476D-04  0.225608D-04 -0.142774D-04  0.000000D+00
     70  0.333161D-05  0.128555D-04  0.142774D-04 -0.644783D-05  0.000000D+00
     71  0.000000D+00 -0.752952D-05  0.000000D+00  0.000000D+00  0.318716D-05
     72 -0.752952D-05 -0.271502D-04 -0.322673D-04  0.217755D-04  0.000000D+00
     73 -0.241345D-04  0.748513D-04  0.121167D-04  0.357849D-05 -0.924029D-05
     74 -0.156804D-05  0.163122D-04  0.606980D-05 -0.470524D-05 -0.273328D-05
     75 -0.241345D-04  0.748509D-04  0.121165D-04 -0.357844D-05 -0.924017D-05
     76 -0.106340D-04  0.852970D-04  0.219469D-04  0.709218D-05 -0.120760D-04
     77  0.390734D-05 -0.313413D-04 -0.709218D-05  0.000000D+00  0.416068D-05
     78  0.658697D-05  0.172646D-04  0.120760D-04  0.416068D-05 -0.399258D-05
     79  0.172646D-04 -0.129743D-03 -0.313370D-04 -0.107969D-04  0.183841D-04
     80  0.120758D-04  0.313365D-04  0.563539D-04  0.193045D-04  0.106339D-04
     81 -0.416070D-05 -0.107969D-04 -0.193045D-04  0.164599D-05 -0.390735D-05
     82 -0.399252D-05 -0.183838D-04 -0.106339D-04 -0.390735D-05  0.658690D-05
     83 -0.183838D-04 -0.446139D-04 -0.852961D-04 -0.313414D-04 -0.172645D-04
     84  0.924027D-05  0.158463D-04  0.528953D-04 -0.169034D-04  0.241345D-04
     85  0.273333D-05  0.766036D-05  0.124552D-04 -0.100197D-04  0.156805D-05
     86  0.509182D-05  0.196475D-04  0.225609D-04  0.142775D-04  0.000000D+00
     87 -0.333160D-05 -0.128554D-04 -0.142775D-04 -0.644783D-05  0.000000D+00
     88  0.000000D+00 -0.752949D-05  0.000000D+00  0.000000D+00  0.318717D-05
     89 -0.752949D-05 -0.271501D-04 -0.322675D-04 -0.217756D-04  0.000000D+00
     90  0.000000D+00  0.322677D-04  0.141282D-04  0.869359D-05 -0.509190D-05
     91  0.000000D+00 -0.217757D-04 -0.869359D-05 -0.378467D-05  0.333164D-05
     92  0.318720D-05  0.000000D+00  0.509190D-05  0.333164D-05  0.000000D+00
     93  0.000000D+00 -0.460266D-04 -0.196478D-04 -0.128556D-04  0.752962D-05
     94  0.924021D-05  0.158461D-04  0.528953D-04  0.169032D-04  0.241346D-04
     95  0.273324D-05  0.766011D-05  0.124549D-04  0.100195D-04  0.156802D-05
     96 -0.156803D-05  0.163121D-04  0.606984D-05  0.470527D-05 -0.273330D-05
               16            17            18            19            20
     16  0.100000D+01
     17  0.000000D+00  0.100000D+01
     18  0.000000D+00  0.000000D+00  0.100000D+01
     19  0.000000D+00  0.000000D+00  0.000000D+00  0.100000D+01
     20  0.235743D+00  0.000000D+00  0.000000D+00  0.000000D+00  0.100000D+01
     21  0.000000D+00  0.418185D+00 -0.363502D+00 -0.212226D+00  0.000000D+00
     22  0.000000D+00  0.363502D+00 -0.180925D+00 -0.253958D+00  0.000000D+00
     23  0.000000D+00  0.212226D+00 -0.253958D+00  0.105785D+00  0.000000D+00
     24  0.333110D-01  0.000000D+00  0.000000D+00  0.000000D+00  0.254056D+00
     25  0.000000D+00  0.107656D-02  0.833011D-03 -0.130400D-02  0.000000D+00
     26  0.000000D+00  0.129869D-01 -0.109269D-01 -0.135622D-01  0.000000D+00
     27  0.000000D+00  0.493725D-02  0.476065D-05 -0.681342D-02  0.000000D+00
     28  0.000000D+00  0.622670D-02  0.607935D-02 -0.685011D-02  0.000000D+00
     29  0.000000D+00 -0.607935D-02 -0.499074D-02  0.746813D-02  0.000000D+00
     30  0.000000D+00  0.685011D-02  0.746813D-02 -0.677788D-02  0.000000D+00
     31  0.316324D-01  0.000000D+00  0.000000D+00  0.000000D+00  0.163708D-02
     32  0.000000D+00  0.766371D-01  0.100826D+00  0.000000D+00  0.000000D+00
     33  0.000000D+00 -0.100826D+00 -0.127715D+00  0.000000D+00  0.000000D+00
     34  0.000000D+00  0.000000D+00  0.000000D+00  0.295730D-01  0.000000D+00
     35  0.235736D+00  0.000000D+00  0.000000D+00  0.000000D+00  0.295730D-01
     36  0.000000D+00  0.520189D+00  0.122346D-02  0.489247D+00  0.000000D+00
     37  0.000000D+00  0.122080D+00 -0.147806D+00 -0.108750D-01  0.000000D+00
     38  0.000000D+00  0.632582D-02  0.913909D-02 -0.172450D-02  0.000000D+00
     39  0.000000D+00 -0.913909D-02 -0.130801D-01  0.278262D-02  0.000000D+00
     40  0.000000D+00  0.172450D-02  0.278262D-02  0.114143D-02  0.000000D+00
     41  0.333113D-01  0.000000D+00  0.000000D+00  0.000000D+00  0.166650D-02
     42  0.000000D+00  0.207478D-02  0.271710D-02 -0.155938D-02  0.000000D+00
     43  0.000000D+00 -0.271710D-02 -0.344869D-02  0.225290D-02  0.000000D+00
     44  0.000000D+00  0.155938D-02  0.225290D-02 -0.816142D-03  0.000000D+00
     45  0.143756D-01  0.000000D+00  0.000000D+00  0.000000D+00  0.476827D-03
     46  0.000000D+00  0.460708D-01  0.541439D-01  0.236823D-01  0.000000D+00
     47  0.000000D+00  0.106158D-02  0.152548D-02 -0.517983D-04  0.000000D+00
     48  0.000000D+00  0.216594D-03  0.279641D-03 -0.160181D-03  0.000000D+00
     49  0.196475D-04  0.228376D-04 -0.706546D-05 -0.125463D-04  0.326874D-04
     50  0.128554D-04  0.706546D-05  0.000000D+00 -0.413951D-05  0.107848D-04
     51  0.752948D-05  0.125463D-04 -0.413951D-05 -0.412026D-05  0.191509D-04
     52 -0.271501D-04 -0.326874D-04  0.107848D-04  0.191509D-04 -0.466641D-04
     53  0.313365D-04  0.144066D-04  0.000000D+00 -0.102303D-04  0.200583D-04
     54  0.107970D-04  0.000000D+00  0.194491D-05  0.000000D+00  0.000000D+00
     55  0.183838D-04  0.102303D-04  0.000000D+00 -0.578061D-05  0.151473D-04
     56 -0.446139D-04 -0.200583D-04  0.000000D+00  0.151473D-04 -0.277540D-04
     57  0.845221D-04  0.219471D-04  0.709225D-05 -0.120760D-04  0.313373D-04
     58  0.000000D+00 -0.709225D-05  0.000000D+00  0.416071D-05 -0.107970D-04
     59  0.357512D-04  0.120760D-04  0.416071D-05 -0.399256D-05  0.183842D-04
     60 -0.128485D-03 -0.313373D-04 -0.107970D-04  0.183842D-04 -0.446151D-04
     61  0.142641D-03  0.563546D-04  0.193045D-04 -0.106339D-04  0.852972D-04
     62  0.000000D+00 -0.193045D-04  0.164619D-05  0.390730D-05 -0.313414D-04
     63  0.000000D+00  0.106339D-04  0.390730D-05  0.658705D-05  0.172645D-04
     64 -0.224758D-03 -0.852972D-04 -0.313414D-04  0.172645D-04 -0.129743D-03
     65  0.852972D-04  0.913639D-04  0.000000D+00  0.000000D+00  0.142641D-03
     66  0.313414D-04  0.000000D+00  0.148922D-04  0.000000D+00  0.000000D+00
     67 -0.172645D-04  0.000000D+00  0.000000D+00  0.148922D-04  0.000000D+00
     68 -0.129743D-03 -0.142641D-03  0.000000D+00  0.000000D+00 -0.224758D-03
     69  0.322673D-04  0.580468D-04 -0.190265D-04 -0.111084D-04  0.880234D-04
     70  0.217755D-04  0.190265D-04  0.233837D-05 -0.390634D-05  0.309541D-04
     71  0.000000D+00  0.111084D-04 -0.390634D-05  0.674850D-05  0.180721D-04
     72 -0.460260D-04 -0.880234D-04  0.309541D-04  0.180721D-04 -0.134175D-03
     73  0.158463D-04  0.182771D-05  0.000000D+00 -0.153622D-05  0.217045D-05
     74  0.766022D-05  0.127821D-04 -0.650282D-05 -0.807118D-05  0.167631D-04
     75  0.158460D-04  0.620498D-05  0.000000D+00 -0.554883D-05  0.783964D-05
     76  0.313370D-04  0.355682D-05  0.206690D-05 -0.232895D-05  0.456633D-05
     77 -0.107969D-04 -0.206690D-05  0.000000D+00  0.142742D-05 -0.279872D-05
     78  0.183841D-04  0.232895D-05  0.142742D-05 -0.119193D-05  0.315355D-05
     79 -0.446146D-04 -0.456633D-05 -0.279872D-05  0.315355D-05 -0.576664D-05
     80  0.852961D-04  0.211675D-04  0.136509D-04  0.000000D+00  0.301581D-04
     81 -0.313414D-04 -0.136509D-04 -0.641290D-05  0.000000D+00 -0.207317D-04
     82 -0.172645D-04  0.000000D+00  0.000000D+00  0.297117D-05  0.000000D+00
     83 -0.129741D-03 -0.301581D-04 -0.207317D-04  0.000000D+00 -0.428302D-04
     84  0.748513D-04  0.111532D-03  0.000000D+00  0.325611D-04  0.164646D-03
     85  0.163123D-04  0.541436D-04 -0.297602D-04 -0.218964D-05  0.767169D-04
     86  0.322675D-04  0.360022D-05  0.309332D-05  0.000000D+00  0.462523D-05
     87 -0.217756D-04 -0.309332D-05 -0.238133D-05  0.000000D+00 -0.419174D-05
     88  0.000000D+00  0.000000D+00  0.000000D+00  0.000000D+00  0.000000D+00
     89 -0.460263D-04 -0.462523D-05 -0.419174D-05  0.000000D+00 -0.584554D-05
     90  0.196478D-04  0.149618D-05  0.122350D-05  0.000000D+00  0.182942D-05
     91 -0.128556D-04 -0.122350D-05  0.000000D+00  0.000000D+00 -0.157000D-05
     92  0.752962D-05  0.000000D+00  0.000000D+00  0.000000D+00  0.000000D+00
     93 -0.271506D-04 -0.182942D-05 -0.157000D-05  0.000000D+00 -0.218735D-05
     94  0.748513D-04  0.302251D-04  0.187571D-04  0.820426D-05  0.414848D-04
     95  0.163119D-04  0.180659D-05  0.180226D-05  0.000000D+00  0.214411D-05
     96  0.766027D-05  0.000000D+00  0.000000D+00  0.000000D+00  0.000000D+00
               21            22            23            24            25
     21  0.100000D+01
     22  0.000000D+00  0.100000D+01
     23  0.000000D+00  0.000000D+00  0.100000D+01
     24  0.000000D+00  0.000000D+00  0.000000D+00  0.100000D+01
     25  0.615268D-03  0.675945D-03 -0.588246D-03  0.000000D+00  0.100000D+01
     26  0.116093D+00 -0.615788D-01 -0.127368D+00  0.000000D+00  0.880750D-03
     27  0.126731D-01  0.593719D-02 -0.159385D-01  0.000000D+00  0.615645D-01
     28  0.207471D-02  0.271701D-02 -0.155933D-02  0.000000D+00  0.520195D+00
     29 -0.271701D-02 -0.344858D-02  0.225283D-02  0.000000D+00 -0.122347D-02
     30  0.155933D-02  0.225283D-02 -0.816123D-03  0.000000D+00 -0.489250D+00
     31  0.000000D+00  0.000000D+00  0.000000D+00  0.476810D-03  0.000000D+00
     32  0.632552D-02  0.913867D-02  0.172444D-02  0.000000D+00  0.493725D-02
     33 -0.913867D-02 -0.130796D-01 -0.278252D-02  0.000000D+00 -0.479566D-05
     34 -0.172444D-02 -0.278252D-02  0.114136D-02  0.000000D+00 -0.681342D-02
     35  0.000000D+00  0.000000D+00  0.000000D+00  0.166641D-02  0.000000D+00
     36  0.121264D+00  0.818782D-01  0.122436D+00  0.000000D+00  0.164370D-03
     37  0.520729D+00 -0.425570D+00  0.241950D+00  0.000000D+00  0.701853D-04
     38  0.463416D-03  0.715527D-03  0.000000D+00  0.000000D+00  0.126733D-01
     39 -0.715527D-03 -0.111335D-02  0.000000D+00  0.000000D+00 -0.593731D-02
     40  0.000000D+00  0.000000D+00  0.898000D-04  0.000000D+00 -0.159387D-01
     41  0.000000D+00  0.000000D+00  0.000000D+00  0.898000D-04  0.000000D+00
     42  0.279197D-03  0.415856D-03 -0.121066D-03  0.000000D+00  0.121265D+00
     43 -0.415856D-03 -0.620724D-03  0.195614D-03  0.000000D+00 -0.818782D-01
     44  0.121066D-03  0.195614D-03 -0.574589D-05  0.000000D+00 -0.122437D+00
     45  0.000000D+00  0.000000D+00  0.000000D+00  0.512024D-04  0.000000D+00
     46  0.333997D-02  0.419340D-02  0.203279D-02  0.000000D+00  0.585154D-03
     47  0.635610D-04  0.960227D-04  0.887390D-05  0.000000D+00  0.233178D-02
     48  0.303519D-04  0.440315D-04 -0.148041D-04  0.000000D+00  0.627495D-01
     49  0.565129D-04  0.000000D+00 -0.220407D-04  0.855521D-04  0.457369D-05
     50  0.000000D+00  0.876647D-05  0.000000D+00  0.000000D+00  0.380218D-05
     51  0.220407D-04  0.000000D+00  0.000000D+00  0.357908D-04 -0.184313D-05
     52 -0.855521D-04  0.000000D+00  0.357908D-04 -0.130157D-03 -0.568935D-05
     53  0.228376D-04  0.706535D-05 -0.125464D-04  0.326874D-04  0.302244D-04
     54 -0.706535D-05  0.000000D+00  0.413947D-05 -0.107847D-04  0.187569D-04
     55  0.125464D-04  0.413947D-05 -0.412034D-05  0.191510D-04 -0.820392D-05
     56 -0.326874D-04 -0.107847D-04  0.191510D-04 -0.466642D-04 -0.414838D-04
     57  0.141280D-04  0.869351D-05 -0.509184D-05  0.196476D-04  0.528953D-04
     58 -0.869351D-05 -0.378466D-05  0.333161D-05 -0.128555D-04  0.169034D-04
     59  0.509184D-05  0.333161D-05  0.000000D+00  0.752952D-05 -0.241345D-04
     60 -0.196476D-04 -0.128555D-04  0.752952D-05 -0.271502D-04 -0.748513D-04
     61  0.225608D-04  0.142774D-04  0.000000D+00  0.322673D-04  0.121167D-04
     62 -0.142774D-04 -0.644783D-05  0.000000D+00 -0.217755D-04  0.357849D-05
     63  0.000000D+00  0.000000D+00  0.318716D-05  0.000000D+00 -0.924029D-05
     64 -0.322673D-04 -0.217755D-04  0.000000D+00 -0.460260D-04 -0.158463D-04
     65  0.580468D-04  0.190265D-04  0.111084D-04  0.880234D-04  0.182771D-05
     66 -0.190265D-04  0.233837D-05 -0.390634D-05 -0.309541D-04  0.000000D+00
     67 -0.111084D-04 -0.390634D-05  0.674850D-05 -0.180721D-04 -0.153622D-05
     68 -0.880234D-04 -0.309541D-04 -0.180721D-04 -0.134175D-03 -0.217045D-05
     69  0.913639D-04  0.000000D+00  0.000000D+00  0.142641D-03  0.114370D-05
     70  0.000000D+00  0.148922D-04  0.000000D+00  0.000000D+00  0.000000D+00
     71  0.000000D+00  0.000000D+00  0.148922D-04  0.000000D+00  0.000000D+00
     72 -0.142641D-03  0.000000D+00  0.000000D+00 -0.224758D-03 -0.132652D-05
     73  0.114370D-05  0.000000D+00  0.000000D+00  0.132652D-05  0.190168D-03
     74  0.526355D-04 -0.127907D-04 -0.264558D-04  0.744634D-04  0.265221D-05
     75  0.125586D-04  0.356489D-05 -0.957000D-05  0.164548D-04  0.566092D-04
     76  0.149614D-05  0.122347D-05  0.000000D+00  0.182937D-05  0.111532D-03
     77 -0.122347D-05  0.000000D+00  0.000000D+00 -0.156996D-05  0.000000D+00
     78  0.000000D+00  0.000000D+00  0.000000D+00  0.000000D+00 -0.325609D-04
     79 -0.182937D-05 -0.156996D-05  0.000000D+00 -0.218729D-05 -0.164647D-03
     80  0.360009D-05  0.309322D-05  0.000000D+00  0.462505D-05  0.620498D-05
     81 -0.309322D-05 -0.238126D-05  0.000000D+00 -0.419159D-05  0.000000D+00
     82  0.000000D+00  0.000000D+00  0.000000D+00  0.000000D+00 -0.554883D-05
     83 -0.462505D-05 -0.419159D-05  0.000000D+00 -0.584531D-05 -0.783964D-05
     84  0.539407D-04  0.165548D-04  0.247551D-04  0.764135D-04  0.000000D+00
     85  0.111582D-03 -0.282947D-04  0.160864D-04  0.164725D-03  0.000000D+00
     86  0.000000D+00  0.000000D+00  0.000000D+00  0.000000D+00  0.125587D-04
     87  0.000000D+00  0.000000D+00  0.000000D+00  0.000000D+00 -0.356494D-05
     88  0.000000D+00  0.000000D+00  0.000000D+00  0.000000D+00 -0.957010D-05
     89  0.000000D+00  0.000000D+00  0.000000D+00  0.000000D+00 -0.164550D-04
     90  0.000000D+00  0.000000D+00  0.000000D+00  0.000000D+00  0.539410D-04
     91  0.000000D+00  0.000000D+00  0.000000D+00  0.000000D+00 -0.165547D-04
     92  0.000000D+00  0.000000D+00  0.000000D+00  0.000000D+00 -0.247552D-04
     93  0.000000D+00  0.000000D+00  0.000000D+00  0.000000D+00 -0.764139D-04
     94  0.457373D-05  0.380221D-05  0.184316D-05  0.568940D-05  0.189622D-05
     95  0.000000D+00  0.000000D+00  0.000000D+00  0.000000D+00  0.577223D-05
     96  0.000000D+00  0.000000D+00  0.000000D+00  0.000000D+00  0.572388D-04
               26            27            28            29            30
     26  0.100000D+01
     27  0.627490D-01  0.100000D+01
     28  0.106161D-02  0.460704D-01  0.100000D+01
     29 -0.152551D-02 -0.541436D-01  0.000000D+00  0.100000D+01
     30  0.518028D-04 -0.236818D-01  0.000000D+00  0.000000D+00  0.100000D+01
     31  0.000000D+00  0.000000D+00  0.000000D+00  0.000000D+00  0.000000D+00
     32  0.216583D-03  0.107649D-02  0.428270D-01  0.000000D+00  0.584418D-01
     33 -0.279627D-03 -0.832964D-03  0.000000D+00  0.148670D-01  0.000000D+00
     34 -0.160173D-03 -0.130392D-02 -0.584418D-01  0.000000D+00 -0.777004D-01
     35  0.000000D+00  0.000000D+00  0.000000D+00  0.000000D+00  0.000000D+00
     36  0.233181D-02  0.585154D-03  0.107654D-02 -0.832994D-03  0.130397D-02
     37  0.608514D-01  0.233179D-02  0.216596D-03 -0.279643D-03  0.160184D-03
     38  0.303519D-04  0.615259D-03  0.862692D-01  0.551949D-01  0.980113D-01
     39 -0.440315D-04 -0.675935D-03 -0.551949D-01 -0.800992D-02 -0.747472D-01
     40 -0.148041D-04 -0.588239D-03 -0.980113D-01 -0.747472D-01 -0.986471D-01
     41  0.000000D+00  0.000000D+00  0.000000D+00  0.000000D+00  0.000000D+00
     42  0.635641D-04  0.333997D-02  0.418187D+00  0.363501D+00  0.212230D+00
     43 -0.960273D-04 -0.419339D-02 -0.363501D+00 -0.180920D+00 -0.253962D+00
     44 -0.887437D-05 -0.203279D-02 -0.212230D+00 -0.253962D+00  0.105781D+00
     45  0.000000D+00  0.000000D+00  0.000000D+00  0.000000D+00  0.000000D+00
     46  0.701843D-04  0.164365D-03  0.493715D-02 -0.477805D-05  0.681329D-02
     47  0.333018D-05  0.701818D-04  0.129865D-01  0.109266D-01  0.135619D-01
     48  0.101296D-04  0.880745D-03  0.122077D+00  0.147803D+00  0.108755D-01
     49  0.111582D-03  0.539403D-04  0.360020D-05 -0.309331D-05  0.000000D+00
     50 -0.282949D-04  0.165546D-04  0.309331D-05 -0.238132D-05  0.000000D+00
     51 -0.160864D-04 -0.247550D-04  0.000000D+00  0.000000D+00  0.000000D+00
     52 -0.164724D-03 -0.764129D-04 -0.462521D-05  0.419172D-05  0.000000D+00
     53  0.541441D-04  0.111532D-03  0.211675D-04 -0.136509D-04  0.000000D+00
     54 -0.297603D-04  0.000000D+00  0.136509D-04 -0.641290D-05  0.000000D+00
     55  0.218980D-05 -0.325611D-04  0.000000D+00  0.000000D+00  0.297117D-05
     56 -0.767176D-04 -0.164646D-03 -0.301581D-04  0.207317D-04  0.000000D+00
     57  0.124551D-04  0.528950D-04  0.563544D-04 -0.193044D-04  0.106340D-04
     58 -0.100196D-04 -0.169032D-04  0.193044D-04  0.164619D-05  0.390734D-05
     59 -0.156804D-05 -0.241345D-04 -0.106340D-04  0.390734D-05  0.658697D-05
     60 -0.163122D-04 -0.748509D-04 -0.852970D-04  0.313413D-04 -0.172646D-04
     61  0.606980D-05  0.121165D-04  0.219469D-04 -0.709218D-05  0.120760D-04
     62 -0.470524D-05 -0.357844D-05  0.709218D-05  0.000000D+00  0.416068D-05
     63 -0.273328D-05 -0.924017D-05 -0.120760D-04  0.416068D-05 -0.399258D-05
     64 -0.766022D-05 -0.158460D-04 -0.313370D-04  0.107969D-04 -0.183841D-04
     65  0.127821D-04  0.620498D-05  0.355682D-05 -0.206690D-05  0.232895D-05
     66 -0.650282D-05  0.000000D+00  0.206690D-05  0.000000D+00  0.142742D-05
     67 -0.807118D-05 -0.554883D-05 -0.232895D-05  0.142742D-05 -0.119193D-05
     68 -0.167631D-04 -0.783964D-05 -0.456633D-05  0.279872D-05 -0.315355D-05
     69  0.526355D-04  0.125586D-04  0.149614D-05 -0.122347D-05  0.000000D+00
     70 -0.127907D-04  0.356489D-05  0.122347D-05  0.000000D+00  0.000000D+00
     71 -0.264558D-04 -0.957000D-05  0.000000D+00  0.000000D+00  0.000000D+00
     72 -0.744634D-04 -0.164548D-04 -0.182937D-05  0.156996D-05  0.000000D+00
     73  0.265221D-05  0.566092D-04  0.111532D-03  0.000000D+00 -0.325609D-04
     74  0.190168D-03  0.572385D-04  0.180662D-05 -0.180229D-05  0.000000D+00
     75  0.572385D-04  0.190168D-03  0.302249D-04 -0.187570D-04 -0.820413D-05
     76  0.180662D-05  0.302249D-04  0.913639D-04  0.000000D+00  0.000000D+00
     77 -0.180229D-05 -0.187570D-04  0.000000D+00  0.148922D-04  0.000000D+00
     78  0.000000D+00 -0.820413D-05  0.000000D+00  0.000000D+00  0.148922D-04
     79 -0.214415D-05 -0.414845D-04 -0.142641D-03  0.000000D+00  0.000000D+00
     80  0.000000D+00  0.182762D-05  0.144064D-04  0.000000D+00  0.102302D-04
     81  0.000000D+00  0.000000D+00  0.000000D+00  0.194488D-05  0.000000D+00
     82  0.000000D+00 -0.153614D-05 -0.102302D-04  0.000000D+00 -0.578058D-05
     83  0.000000D+00 -0.217033D-05 -0.200580D-04  0.000000D+00 -0.151471D-04
     84  0.577228D-05  0.189622D-05  0.182769D-05  0.000000D+00  0.153620D-05
     85  0.562269D-04  0.577224D-05  0.000000D+00  0.000000D+00  0.000000D+00
     86  0.000000D+00  0.114368D-05  0.228374D-04  0.706538D-05  0.125462D-04
     87  0.000000D+00  0.000000D+00 -0.706538D-05  0.000000D+00 -0.413948D-05
     88  0.000000D+00  0.000000D+00 -0.125462D-04 -0.413948D-05 -0.412028D-05
     89  0.000000D+00 -0.132650D-05 -0.326870D-04 -0.107847D-04 -0.191507D-04
     90  0.000000D+00  0.457373D-05  0.580469D-04  0.190264D-04  0.111086D-04
     91  0.000000D+00 -0.380220D-05 -0.190264D-04  0.233848D-05 -0.390638D-05
     92  0.000000D+00 -0.184316D-05 -0.111086D-04 -0.390638D-05  0.674845D-05
     93  0.000000D+00 -0.568940D-05 -0.880235D-04 -0.309539D-04 -0.180725D-04
     94  0.000000D+00  0.000000D+00  0.620488D-05  0.000000D+00  0.554875D-05
     95  0.000000D+00  0.000000D+00  0.127819D-04  0.650272D-05  0.807104D-05
     96  0.000000D+00  0.265219D-05  0.541431D-04  0.297600D-04  0.218976D-05
               31            32            33            34            35
     31  0.100000D+01
     32  0.000000D+00  0.100000D+01
     33  0.000000D+00  0.000000D+00  0.100000D+01
     34  0.000000D+00  0.000000D+00  0.000000D+00  0.100000D+01
     35  0.148670D-01  0.000000D+00  0.000000D+00  0.000000D+00  0.100000D+01
     36  0.000000D+00  0.460693D-01 -0.541424D-01  0.236809D-01  0.000000D+00
     37  0.000000D+00  0.106158D-02 -0.152547D-02 -0.518016D-04  0.000000D+00
     38  0.000000D+00  0.418191D+00  0.363503D+00 -0.212233D+00  0.000000D+00
     39  0.000000D+00 -0.363503D+00 -0.180916D+00  0.253964D+00  0.000000D+00
     40  0.000000D+00  0.212233D+00  0.253964D+00  0.105783D+00  0.000000D+00
     41  0.340838D-01  0.000000D+00  0.000000D+00  0.000000D+00  0.254061D+00
     42  0.000000D+00  0.862716D-01  0.551952D-01 -0.980144D-01  0.000000D+00
     43  0.000000D+00 -0.551952D-01 -0.800824D-02  0.747480D-01  0.000000D+00
     44  0.000000D+00  0.980144D-01  0.747480D-01 -0.986508D-01  0.000000D+00
     45  0.254057D+00  0.000000D+00  0.000000D+00  0.000000D+00  0.340849D-01
     46  0.000000D+00  0.520189D+00 -0.123695D-02  0.489247D+00  0.000000D+00
     47  0.000000D+00  0.122079D+00  0.147806D+00 -0.108757D-01  0.000000D+00
     48  0.000000D+00  0.129870D-01  0.109269D-01 -0.135624D-01  0.000000D+00
     49  0.462521D-05  0.149609D-05 -0.122344D-05  0.000000D+00  0.182931D-05
     50  0.419172D-05  0.122344D-05  0.000000D+00  0.000000D+00  0.156992D-05
     51  0.000000D+00  0.000000D+00  0.000000D+00  0.000000D+00  0.000000D+00
     52 -0.584552D-05 -0.182931D-05  0.156992D-05  0.000000D+00 -0.218721D-05
     53  0.301581D-04  0.355662D-05 -0.206681D-05 -0.232882D-05  0.456605D-05
     54  0.207317D-04  0.206681D-05  0.000000D+00 -0.142736D-05  0.279859D-05
     55  0.000000D+00  0.232882D-05 -0.142736D-05 -0.119187D-05  0.315336D-05
     56 -0.428302D-04 -0.456605D-05  0.279859D-05  0.315336D-05 -0.576627D-05
     57  0.852970D-04  0.219466D-04 -0.709221D-05 -0.120758D-04  0.313365D-04
     58  0.313413D-04  0.709221D-05  0.000000D+00 -0.416070D-05  0.107969D-04
     59 -0.172646D-04  0.120758D-04 -0.416070D-05 -0.399252D-05  0.183838D-04
     60 -0.129743D-03 -0.313365D-04  0.107969D-04  0.183838D-04 -0.446139D-04
     61  0.313370D-04  0.563539D-04 -0.193045D-04 -0.106339D-04  0.852961D-04
     62  0.107969D-04  0.193045D-04  0.164599D-05 -0.390735D-05  0.313414D-04
     63 -0.183841D-04  0.106339D-04 -0.390735D-05  0.658690D-05  0.172645D-04
     64 -0.446146D-04 -0.852961D-04  0.313414D-04  0.172645D-04 -0.129741D-03
     65  0.456633D-05  0.211675D-04 -0.136509D-04  0.000000D+00  0.301581D-04
     66  0.279872D-05  0.136509D-04 -0.641290D-05  0.000000D+00  0.207317D-04
     67 -0.315355D-05  0.000000D+00  0.000000D+00  0.297117D-05  0.000000D+00
     68 -0.576664D-05 -0.301581D-04  0.207317D-04  0.000000D+00 -0.428302D-04
     69  0.182937D-05  0.360009D-05 -0.309322D-05  0.000000D+00  0.462505D-05
     70  0.156996D-05  0.309322D-05 -0.238126D-05  0.000000D+00  0.419159D-05
     71  0.000000D+00  0.000000D+00  0.000000D+00  0.000000D+00  0.000000D+00
     72 -0.218729D-05 -0.462505D-05  0.419159D-05  0.000000D+00 -0.584531D-05
     73  0.164647D-03  0.620498D-05  0.000000D+00 -0.554883D-05  0.783964D-05
     74  0.214415D-05  0.000000D+00  0.000000D+00  0.000000D+00  0.000000D+00
     75  0.414845D-04  0.182762D-05  0.000000D+00 -0.153614D-05  0.217033D-05
     76  0.142641D-03  0.144064D-04  0.000000D+00 -0.102302D-04  0.200580D-04
     77  0.000000D+00  0.000000D+00  0.194488D-05  0.000000D+00  0.000000D+00
     78  0.000000D+00  0.102302D-04  0.000000D+00 -0.578058D-05  0.151471D-04
     79 -0.224758D-03 -0.200580D-04  0.000000D+00  0.151471D-04 -0.277536D-04
     80  0.200580D-04  0.913639D-04  0.000000D+00  0.000000D+00  0.142641D-03
     81  0.000000D+00  0.000000D+00  0.148922D-04  0.000000D+00  0.000000D+00
     82 -0.151471D-04  0.000000D+00  0.000000D+00  0.148922D-04  0.000000D+00
     83 -0.277536D-04 -0.142641D-03  0.000000D+00  0.000000D+00 -0.224758D-03
     84  0.217041D-05  0.302244D-04 -0.187569D-04  0.820392D-05  0.414838D-04
     85  0.000000D+00  0.180659D-05 -0.180226D-05  0.000000D+00  0.214410D-05
     86  0.326870D-04  0.580472D-04  0.190263D-04 -0.111086D-04  0.880241D-04
     87 -0.107847D-04 -0.190263D-04  0.233861D-05  0.390637D-05 -0.309538D-04
     88 -0.191507D-04  0.111086D-04  0.390637D-05  0.674850D-05  0.180726D-04
     89 -0.466636D-04 -0.880241D-04 -0.309538D-04  0.180726D-04 -0.134177D-03
     90  0.880235D-04  0.228378D-04  0.706534D-05 -0.125465D-04  0.326876D-04
     91 -0.309539D-04 -0.706534D-05  0.000000D+00  0.413946D-05 -0.107846D-04
     92 -0.180725D-04  0.125465D-04  0.413946D-05 -0.412036D-05  0.191511D-04
     93 -0.134176D-03 -0.326876D-04 -0.107846D-04  0.191511D-04 -0.466645D-04
     94  0.783952D-05  0.111532D-03  0.000000D+00  0.325611D-04  0.164646D-03
     95  0.167628D-04  0.541436D-04  0.297601D-04 -0.218978D-05  0.767168D-04
     96  0.767161D-04  0.127822D-04  0.650280D-05 -0.807126D-05  0.167633D-04
               36            37            38            39            40
     36  0.100000D+01
     37  0.627504D-01  0.100000D+01
     38  0.333994D-02  0.635641D-04  0.100000D+01
     39 -0.419337D-02 -0.960274D-04  0.000000D+00  0.100000D+01
     40  0.203276D-02  0.887436D-05  0.000000D+00  0.000000D+00  0.100000D+01
     41  0.000000D+00  0.000000D+00  0.000000D+00  0.000000D+00  0.000000D+00
     42  0.615279D-03  0.303534D-04  0.398147D+00 -0.287640D-05 -0.407575D+00
     43 -0.675957D-03 -0.440336D-04  0.287640D-05  0.237410D+00 -0.401758D-05
     44  0.588257D-03  0.148049D-04  0.407575D+00 -0.401758D-05 -0.331866D+00
     45  0.000000D+00  0.000000D+00  0.000000D+00  0.000000D+00  0.000000D+00
     46  0.615655D-01  0.880781D-03  0.121261D+00 -0.818766D-01  0.122433D+00
     47  0.880733D-03  0.101296D-04  0.520720D+00  0.425567D+00  0.241943D+00
     48  0.701841D-04  0.333034D-05  0.116093D+00  0.615788D-01 -0.127368D+00
     49  0.125587D-04  0.526358D-04  0.000000D+00  0.000000D+00  0.000000D+00
     50  0.356494D-05 -0.127906D-04  0.000000D+00  0.000000D+00  0.000000D+00
     51  0.957011D-05  0.264559D-04  0.000000D+00  0.000000D+00  0.000000D+00
     52 -0.164551D-04 -0.744638D-04  0.000000D+00  0.000000D+00  0.000000D+00
     53  0.620498D-05  0.127823D-04  0.149609D-05 -0.122343D-05  0.000000D+00
     54  0.000000D+00 -0.650283D-05  0.122343D-05  0.000000D+00  0.000000D+00
     55  0.554883D-05  0.807134D-05  0.000000D+00  0.000000D+00  0.000000D+00
     56 -0.783964D-05 -0.167634D-04 -0.182931D-05  0.156991D-05  0.000000D+00
     57  0.121167D-04  0.606991D-05  0.141280D-04 -0.869348D-05 -0.509182D-05
     58 -0.357848D-05 -0.470531D-05  0.869348D-05 -0.378466D-05 -0.333160D-05
     59  0.924027D-05  0.273333D-05  0.509182D-05 -0.333160D-05  0.000000D+00
     60 -0.158463D-04 -0.766036D-05 -0.196475D-04  0.128554D-04  0.752949D-05
     61  0.528953D-04  0.124552D-04  0.225609D-04 -0.142775D-04  0.000000D+00
     62 -0.169034D-04 -0.100197D-04  0.142775D-04 -0.644783D-05  0.000000D+00
     63  0.241345D-04  0.156805D-05  0.000000D+00  0.000000D+00  0.318717D-05
     64 -0.748513D-04 -0.163123D-04 -0.322675D-04  0.217756D-04  0.000000D+00
     65  0.111532D-03  0.541436D-04  0.360022D-05 -0.309332D-05  0.000000D+00
     66  0.000000D+00 -0.297602D-04  0.309332D-05 -0.238133D-05  0.000000D+00
     67  0.325611D-04 -0.218964D-05  0.000000D+00  0.000000D+00  0.000000D+00
     68 -0.164646D-03 -0.767169D-04 -0.462523D-05  0.419174D-05  0.000000D+00
     69  0.539407D-04  0.111582D-03  0.000000D+00  0.000000D+00  0.000000D+00
     70  0.165548D-04 -0.282947D-04  0.000000D+00  0.000000D+00  0.000000D+00
     71  0.247551D-04  0.160864D-04  0.000000D+00  0.000000D+00  0.000000D+00
     72 -0.764135D-04 -0.164725D-03  0.000000D+00  0.000000D+00  0.000000D+00
     73  0.000000D+00  0.000000D+00  0.125587D-04 -0.356494D-05 -0.957010D-05
     74  0.577228D-05  0.562269D-04  0.000000D+00  0.000000D+00  0.000000D+00
     75  0.189622D-05  0.577224D-05  0.114368D-05  0.000000D+00  0.000000D+00
     76  0.182769D-05  0.000000D+00  0.228374D-04 -0.706538D-05 -0.125462D-04
     77  0.000000D+00  0.000000D+00  0.706538D-05  0.000000D+00 -0.413948D-05
     78  0.153620D-05  0.000000D+00  0.125462D-04 -0.413948D-05 -0.412028D-05
     79 -0.217041D-05  0.000000D+00 -0.326870D-04  0.107847D-04  0.191507D-04
     80  0.302244D-04  0.180659D-05  0.580472D-04 -0.190263D-04  0.111086D-04
     81 -0.187569D-04 -0.180226D-05  0.190263D-04  0.233861D-05  0.390637D-05
     82  0.820392D-05  0.000000D+00 -0.111086D-04  0.390637D-05  0.674850D-05
     83 -0.414838D-04 -0.214410D-05 -0.880241D-04  0.309538D-04 -0.180726D-04
     84  0.190168D-03  0.572393D-04  0.457370D-05 -0.380219D-05  0.184313D-05
     85  0.572393D-04  0.190168D-03  0.000000D+00  0.000000D+00  0.000000D+00
     86  0.457370D-05  0.000000D+00  0.913639D-04  0.000000D+00  0.000000D+00
     87 -0.380219D-05  0.000000D+00  0.000000D+00  0.148922D-04  0.000000D+00
     88  0.184313D-05  0.000000D+00  0.000000D+00  0.000000D+00  0.148922D-04
     89 -0.568936D-05  0.000000D+00 -0.142641D-03  0.000000D+00  0.000000D+00
     90  0.114371D-05  0.000000D+00  0.565129D-04  0.000000D+00 -0.220407D-04
     91  0.000000D+00  0.000000D+00  0.000000D+00  0.876647D-05  0.000000D+00
     92  0.000000D+00  0.000000D+00  0.220407D-04  0.000000D+00  0.000000D+00
     93 -0.132654D-05  0.000000D+00 -0.855521D-04  0.000000D+00  0.357908D-04
     94  0.566097D-04  0.265228D-05  0.539401D-04 -0.165547D-04  0.247549D-04
     95  0.265216D-05  0.000000D+00  0.111581D-03  0.282950D-04  0.160863D-04
     96  0.000000D+00  0.000000D+00  0.526355D-04  0.127907D-04 -0.264558D-04
               41            42            43            44            45
     41  0.100000D+01
     42  0.000000D+00  0.100000D+01
     43  0.000000D+00  0.000000D+00  0.100000D+01
     44  0.000000D+00  0.000000D+00  0.000000D+00  0.100000D+01
     45  0.237410D+00  0.000000D+00  0.000000D+00  0.000000D+00  0.100000D+01
     46  0.000000D+00  0.126731D-01 -0.593720D-02  0.159385D-01  0.000000D+00
     47  0.000000D+00  0.116092D+00  0.615791D-01  0.127366D+00  0.000000D+00
     48  0.000000D+00  0.520719D+00  0.425567D+00 -0.241944D+00  0.000000D+00
     49  0.000000D+00  0.000000D+00  0.000000D+00  0.000000D+00  0.000000D+00
     50  0.000000D+00  0.000000D+00  0.000000D+00  0.000000D+00  0.000000D+00
     51  0.000000D+00  0.000000D+00  0.000000D+00  0.000000D+00  0.000000D+00
     52  0.000000D+00  0.000000D+00  0.000000D+00  0.000000D+00  0.000000D+00
     53  0.182931D-05  0.360015D-05 -0.309326D-05  0.000000D+00  0.462513D-05
     54  0.156991D-05  0.309326D-05 -0.238129D-05  0.000000D+00  0.419166D-05
     55  0.000000D+00  0.000000D+00  0.000000D+00  0.000000D+00  0.000000D+00
     56 -0.218721D-05 -0.462513D-05  0.419166D-05  0.000000D+00 -0.584542D-05
     57  0.196475D-04  0.225611D-04 -0.142775D-04  0.000000D+00  0.322677D-04
     58  0.128554D-04  0.142775D-04 -0.644783D-05  0.000000D+00  0.217757D-04
     59  0.752949D-05  0.000000D+00  0.000000D+00  0.318720D-05  0.000000D+00
     60 -0.271501D-04 -0.322677D-04  0.217757D-04  0.000000D+00 -0.460266D-04
     61  0.322675D-04  0.141282D-04 -0.869359D-05  0.509190D-05  0.196478D-04
     62  0.217756D-04  0.869359D-05 -0.378467D-05  0.333164D-05  0.128556D-04
     63  0.000000D+00 -0.509190D-05  0.333164D-05  0.000000D+00 -0.752962D-05
     64 -0.460263D-04 -0.196478D-04  0.128556D-04 -0.752962D-05 -0.271506D-04
     65  0.462523D-05  0.149618D-05 -0.122350D-05  0.000000D+00  0.182942D-05
     66  0.419174D-05  0.122350D-05  0.000000D+00  0.000000D+00  0.157000D-05
     67  0.000000D+00  0.000000D+00  0.000000D+00  0.000000D+00  0.000000D+00
     68 -0.584554D-05 -0.182942D-05  0.157000D-05  0.000000D+00 -0.218735D-05
     69  0.000000D+00  0.000000D+00  0.000000D+00  0.000000D+00  0.000000D+00
     70  0.000000D+00  0.000000D+00  0.000000D+00  0.000000D+00  0.000000D+00
     71  0.000000D+00  0.000000D+00  0.000000D+00  0.000000D+00  0.000000D+00
     72  0.000000D+00  0.000000D+00  0.000000D+00  0.000000D+00  0.000000D+00
     73  0.164550D-04  0.539410D-04 -0.165547D-04 -0.247552D-04  0.764139D-04
     74  0.000000D+00  0.000000D+00  0.000000D+00  0.000000D+00  0.000000D+00
     75  0.132650D-05  0.457373D-05 -0.380220D-05 -0.184316D-05  0.568940D-05
     76  0.326870D-04  0.580469D-04 -0.190264D-04 -0.111086D-04  0.880235D-04
     77  0.107847D-04  0.190264D-04  0.233848D-05 -0.390638D-05  0.309539D-04
     78  0.191507D-04  0.111086D-04 -0.390638D-05  0.674845D-05  0.180725D-04
     79 -0.466636D-04 -0.880235D-04  0.309539D-04  0.180725D-04 -0.134176D-03
     80  0.880241D-04  0.228378D-04 -0.706534D-05  0.125465D-04  0.326876D-04
     81  0.309538D-04  0.706534D-05  0.000000D+00  0.413946D-05  0.107846D-04
     82 -0.180726D-04 -0.125465D-04  0.413946D-05 -0.412036D-05 -0.191511D-04
     83 -0.134177D-03 -0.326876D-04  0.107846D-04 -0.191511D-04 -0.466645D-04
     84  0.568936D-05  0.114371D-05  0.000000D+00  0.000000D+00  0.132654D-05
     85  0.000000D+00  0.000000D+00  0.000000D+00  0.000000D+00  0.000000D+00
     86  0.142641D-03  0.565129D-04  0.000000D+00  0.220407D-04  0.855521D-04
     87  0.000000D+00  0.000000D+00  0.876647D-05  0.000000D+00  0.000000D+00
     88  0.000000D+00 -0.220407D-04  0.000000D+00  0.000000D+00 -0.357908D-04
     89 -0.224758D-03 -0.855521D-04  0.000000D+00 -0.357908D-04 -0.130157D-03
     90  0.855521D-04  0.913639D-04  0.000000D+00  0.000000D+00  0.142641D-03
     91  0.000000D+00  0.000000D+00  0.148922D-04  0.000000D+00  0.000000D+00
     92  0.357908D-04  0.000000D+00  0.000000D+00  0.148922D-04  0.000000D+00
     93 -0.130157D-03 -0.142641D-03  0.000000D+00  0.000000D+00 -0.224758D-03
     94  0.764125D-04  0.125586D-04 -0.356489D-05  0.957001D-05  0.164548D-04
     95  0.164724D-03  0.526352D-04  0.127908D-04  0.264556D-04  0.744629D-04
     96  0.744634D-04  0.111581D-03  0.282950D-04 -0.160863D-04  0.164724D-03
               46            47            48            49            50
     46  0.100000D+01
     47  0.627472D-01  0.100000D+01
     48  0.233174D-02  0.608514D-01  0.100000D+01
     49  0.114370D-05  0.000000D+00  0.000000D+00  0.100000D+01
     50  0.000000D+00  0.000000D+00  0.000000D+00  0.000000D+00  0.100000D+01
     51  0.000000D+00  0.000000D+00  0.000000D+00  0.000000D+00  0.000000D+00
     52 -0.132652D-05  0.000000D+00  0.000000D+00  0.000000D+00  0.000000D+00
     53  0.182764D-05  0.000000D+00  0.180656D-05  0.418191D+00  0.363502D+00
     54  0.000000D+00  0.000000D+00  0.180223D-05 -0.363502D+00 -0.180916D+00
     55  0.153616D-05  0.000000D+00  0.000000D+00  0.212233D+00  0.253964D+00
     56 -0.217035D-05  0.000000D+00 -0.214406D-05  0.000000D+00  0.000000D+00
     57  0.121166D-04  0.606972D-05  0.124550D-04  0.846391D-01  0.110523D+00
     58  0.357843D-05  0.470519D-05  0.100196D-04 -0.110523D+00 -0.138570D+00
     59  0.924021D-05  0.273324D-05 -0.156803D-05  0.382034D-03  0.594126D-03
     60 -0.158461D-04 -0.766011D-05 -0.163121D-04  0.000000D+00  0.000000D+00
     61  0.528953D-04  0.124549D-04  0.606984D-05  0.416121D-01  0.490741D-01
     62  0.169032D-04  0.100195D-04  0.470527D-05 -0.490741D-01 -0.527411D-01
     63  0.241346D-04  0.156802D-05 -0.273330D-05 -0.287429D-01 -0.393103D-01
     64 -0.748513D-04 -0.163119D-04 -0.766027D-05  0.000000D+00  0.000000D+00
     65  0.302251D-04  0.180659D-05  0.000000D+00  0.862706D-01  0.551960D-01
     66  0.187571D-04  0.180226D-05  0.000000D+00 -0.551960D-01 -0.801020D-02
     67  0.820426D-05  0.000000D+00  0.000000D+00 -0.980127D-01 -0.747485D-01
     68 -0.414848D-04 -0.214411D-05  0.000000D+00  0.000000D+00  0.000000D+00
     69  0.457373D-05  0.000000D+00  0.000000D+00  0.398147D+00  0.000000D+00
     70  0.380221D-05  0.000000D+00  0.000000D+00  0.000000D+00  0.237410D+00
     71  0.184316D-05  0.000000D+00  0.000000D+00 -0.407575D+00  0.000000D+00
     72 -0.568940D-05  0.000000D+00  0.000000D+00  0.000000D+00  0.000000D+00
     73  0.189622D-05  0.577223D-05  0.572388D-04  0.333994D-02  0.419336D-02
     74  0.000000D+00  0.000000D+00  0.000000D+00  0.520724D+00 -0.425568D+00
     75  0.000000D+00  0.000000D+00  0.265219D-05  0.121262D+00  0.818767D-01
     76  0.620488D-05  0.127819D-04  0.541431D-04  0.632579D-02  0.913905D-02
     77  0.000000D+00  0.650272D-05  0.297600D-04 -0.913905D-02 -0.130801D-01
     78  0.554875D-05  0.807104D-05  0.218976D-05  0.172452D-02  0.278265D-02
     79 -0.783952D-05 -0.167628D-04 -0.767161D-04  0.000000D+00  0.000000D+00
     80  0.111532D-03  0.541436D-04  0.127822D-04  0.207463D-02  0.271691D-02
     81  0.000000D+00  0.297601D-04  0.650280D-05 -0.271691D-02 -0.344846D-02
     82  0.325611D-04 -0.218978D-05 -0.807126D-05 -0.155926D-02 -0.225274D-02
     83 -0.164646D-03 -0.767168D-04 -0.167633D-04  0.000000D+00  0.000000D+00
     84  0.566097D-04  0.265216D-05  0.000000D+00  0.126733D-01  0.593732D-02
     85  0.265228D-05  0.000000D+00  0.000000D+00  0.116094D+00 -0.615787D-01
[...]
    21  C    0.000000   0.000000   0.000000   0.000000   0.000000   0.000000
    22  C    0.000000   0.000000   0.000000   0.000000   0.000000   0.000000
    23  C    0.000000   0.000000   0.000000   0.000000   0.000000   0.000000
    24  C    0.000000   0.000000   0.000000   0.000000   0.000000   0.000000
    25  H    0.000000   0.000000   0.000000   0.000000   0.000000   0.000000
    26  H    0.000000   0.000000   0.000000   0.000000   0.000000   0.000000
    27  H    0.000000   0.000000   0.000000   0.000000   0.000000   0.000000
    28  C    0.000000   0.000000   0.000000   0.000000   0.000000   0.000000
    29  C    0.000000   0.000000   0.000000   0.000000   0.000000   0.000000
    30  H    0.000000   0.000000   0.000000   0.000000   0.000000   0.000000
    31  H    0.000000   0.000000   0.000000   0.000000   0.000000   0.000000
    32  C    0.000000   0.000000   0.000000   0.000000   0.000000   0.000000
    33  C    0.000000   0.000000   0.000000   0.000000   0.000000   0.000000
    34  H    0.000000   0.000000   0.000000   0.000000   0.000000   0.000000
    35  H    0.000000   0.000000   0.000000   0.000000   0.000000   0.000000
    36  H    0.000000   0.000000   0.000000   0.000000   0.000000   0.000000
              7          8          9         10         11         12
     1  C    0.000000   0.000000   0.000000   0.000000   0.000000   0.000000
     2  C    0.000000   0.000000   0.000000   0.000000   0.000000   0.000000
     3  C    0.000000   0.000000   0.000000   0.000000   0.000000   0.000000
     4  C    0.000000   0.000000   0.000000   0.000000   0.000000   0.000000
     5  C    0.000000   0.000000   0.000000   0.000000   0.000000   0.000000
     6  C    0.000000   0.000000   0.000000   0.000000   0.000000   0.000000
     7  H    0.968062   0.000000   0.000000   0.000000   0.000000   0.000000
     8  H    0.000000   0.967522   0.000000   0.000000   0.000000   0.000000
     9  H    0.000000   0.000000   0.968064   0.000000   0.000000   0.000000
    10  C    0.000000   0.000000   0.000000   4.037271   0.000000   0.000000
    11  C    0.000000   0.000000   0.000000   0.000000   4.037271   0.000000
    12  H    0.000000   0.000000   0.000000   0.000000   0.000000   0.968066
    13  H    0.000000   0.000000   0.000000   0.000000   0.000000   0.000000
    14  C    0.000000   0.000000   0.000000   0.000000   0.000000   0.000000
    15  C    0.000000   0.000000   0.000000   0.000000   0.000000   0.000000
    16  H    0.000000   0.000000   0.000000   0.000000   0.000000   0.000000
    17  H    0.000000   0.000000   0.000000   0.000000   0.000000   0.000000
    18  H    0.000000   0.000000   0.000000   0.000000   0.000000   0.000000
    19  C    0.000000   0.000000   0.000000   0.000000   0.000000   0.000000
    20  C    0.000000   0.000000   0.000000   0.000000   0.000000   0.000000
    21  C    0.000000   0.000000   0.000000   0.000000   0.000000   0.000000
    22  C    0.000000   0.000000   0.000000   0.000000   0.000000   0.000000
    23  C    0.000000   0.000000   0.000000   0.000000   0.000000   0.000000
    24  C    0.000000   0.000000   0.000000   0.000000   0.000000   0.000000
    25  H    0.000000   0.000000   0.000000   0.000000   0.000000   0.000000
    26  H    0.000000   0.000000   0.000000   0.000000   0.000000   0.000000
    27  H    0.000000   0.000000   0.000000   0.000000   0.000000   0.000000
    28  C    0.000000   0.000000   0.000000   0.000000   0.000000   0.000000
    29  C    0.000000   0.000000   0.000000   0.000000   0.000000   0.000000
    30  H    0.000000   0.000000   0.000000   0.000000   0.000000   0.000000
    31  H    0.000000   0.000000   0.000000   0.000000   0.000000   0.000000
    32  C    0.000000   0.000000   0.000000   0.000000   0.000000   0.000000
    33  C    0.000000   0.000000   0.000000   0.000000   0.000000   0.000000
    34  H    0.000000   0.000000   0.000000   0.000000   0.000000   0.000000
    35  H    0.000000   0.000000   0.000000   0.000000   0.000000   0.000000
    36  H    0.000000   0.000000   0.000000   0.000000   0.000000   0.000000
             13         14         15         16         17         18
     1  C    0.000000   0.000000   0.000000   0.000000   0.000000   0.000000
     2  C    0.000000   0.000000   0.000000   0.000000   0.000000   0.000000
     3  C    0.000000   0.000000   0.000000   0.000000   0.000000   0.000000
     4  C    0.000000   0.000000   0.000000   0.000000   0.000000   0.000000
     5  C    0.000000   0.000000   0.000000   0.000000   0.000000   0.000000
     6  C    0.000000   0.000000   0.000000   0.000000   0.000000   0.000000
     7  H    0.000000   0.000000   0.000000   0.000000   0.000000   0.000000
     8  H    0.000000   0.000000   0.000000   0.000000   0.000000   0.000000
     9  H    0.000000   0.000000   0.000000   0.000000   0.000000   0.000000
    10  C    0.000000   0.000000   0.000000   0.000000   0.000000   0.000000
    11  C    0.000000   0.000000   0.000000   0.000000   0.000000   0.000000
    12  H    0.000000   0.000000   0.000000   0.000000   0.000000   0.000000
    13  H    0.967519   0.000000   0.000000   0.000000   0.000000   0.000000
    14  C    0.000000   4.034712   0.000000   0.000000   0.000000   0.000000
    15  C    0.000000   0.000000   4.034715   0.000000   0.000000   0.000000
    16  H    0.000000   0.000000   0.000000   0.968064   0.000000   0.000000
    17  H    0.000000   0.000000   0.000000   0.000000   0.967522   0.000000
    18  H    0.000000   0.000000   0.000000   0.000000   0.000000   0.967523
    19  C    0.000000   0.000000   0.000000   0.000000   0.000000   0.000000
    20  C    0.000000   0.000000   0.000000   0.000000   0.000000   0.000000
    21  C    0.000000   0.000000   0.000000   0.000000   0.000000   0.000000
    22  C    0.000000   0.000000   0.000000   0.000000   0.000000   0.000000
    23  C    0.000000   0.000000   0.000000   0.000000   0.000000   0.000000
    24  C    0.000000   0.000000   0.000000   0.000000   0.000000   0.000000
    25  H    0.000000   0.000000   0.000000   0.000000   0.000000   0.000000
    26  H    0.000000   0.000000   0.000000   0.000000   0.000000   0.000000
    27  H    0.000000   0.000000   0.000000   0.000000   0.000000   0.000000
    28  C    0.000000   0.000000   0.000000   0.000000   0.000000   0.000000
    29  C    0.000000   0.000000   0.000000   0.000000   0.000000   0.000000
    30  H    0.000000   0.000000   0.000000   0.000000   0.000000   0.000000
    31  H    0.000000   0.000000   0.000000   0.000000   0.000000   0.000000
    32  C    0.000000   0.000000   0.000000   0.000000   0.000000   0.000000
    33  C    0.000000   0.000000   0.000000   0.000000   0.000000   0.000000
    34  H    0.000000   0.000000   0.000000   0.000000   0.000000   0.000000
    35  H    0.000000   0.000000   0.000000   0.000000   0.000000   0.000000
    36  H    0.000000   0.000000   0.000000   0.000000   0.000000   0.000000
             19         20         21         22         23         24
     1  C    0.000000   0.000000   0.000000   0.000000   0.000000   0.000000
     2  C    0.000000   0.000000   0.000000   0.000000   0.000000   0.000000
     3  C    0.000000   0.000000   0.000000   0.000000   0.000000   0.000000
     4  C    0.000000   0.000000   0.000000   0.000000   0.000000   0.000000
     5  C    0.000000   0.000000   0.000000   0.000000   0.000000   0.000000
     6  C    0.000000   0.000000   0.000000   0.000000   0.000000   0.000000
     7  H    0.000000   0.000000   0.000000   0.000000   0.000000   0.000000
     8  H    0.000000   0.000000   0.000000   0.000000   0.000000   0.000000
     9  H    0.000000   0.000000   0.000000   0.000000   0.000000   0.000000
    10  C    0.000000   0.000000   0.000000   0.000000   0.000000   0.000000
    11  C    0.000000   0.000000   0.000000   0.000000   0.000000   0.000000
    12  H    0.000000   0.000000   0.000000   0.000000   0.000000   0.000000
    13  H    0.000000   0.000000   0.000000   0.000000   0.000000   0.000000
    14  C    0.000000   0.000000   0.000000   0.000000   0.000000   0.000000
    15  C    0.000000   0.000000   0.000000   0.000000   0.000000   0.000000
    16  H    0.000000   0.000000   0.000000   0.000000   0.000000   0.000000
    17  H    0.000000   0.000000   0.000000   0.000000   0.000000   0.000000
    18  H    0.000000   0.000000   0.000000   0.000000   0.000000   0.000000
    19  C    4.034712   0.000000   0.000000   0.000000   0.000000   0.000000
    20  C    0.000000   4.037273   0.000000   0.000000   0.000000   0.000000
    21  C    0.000000   0.000000   3.984859   0.000000   0.000000   0.000000
    22  C    0.000000   0.000000   0.000000   3.984859   0.000000   0.000000
    23  C    0.000000   0.000000   0.000000   0.000000   4.037270   0.000000
    24  C    0.000000   0.000000   0.000000   0.000000   0.000000   4.034717
    25  H    0.000000   0.000000   0.000000   0.000000   0.000000   0.000000
    26  H    0.000000   0.000000   0.000000   0.000000   0.000000   0.000000
    27  H    0.000000   0.000000   0.000000   0.000000   0.000000   0.000000
    28  C    0.000000   0.000000   0.000000   0.000000   0.000000   0.000000
    29  C    0.000000   0.000000   0.000000   0.000000   0.000000   0.000000
    30  H    0.000000   0.000000   0.000000   0.000000   0.000000   0.000000
    31  H    0.000000   0.000000   0.000000   0.000000   0.000000   0.000000
    32  C    0.000000   0.000000   0.000000   0.000000   0.000000   0.000000
    33  C    0.000000   0.000000   0.000000   0.000000   0.000000   0.000000
    34  H    0.000000   0.000000   0.000000   0.000000   0.000000   0.000000
    35  H    0.000000   0.000000   0.000000   0.000000   0.000000   0.000000
    36  H    0.000000   0.000000   0.000000   0.000000   0.000000   0.000000
             25         26         27         28         29         30
     1  C    0.000000   0.000000   0.000000   0.000000   0.000000   0.000000
     2  C    0.000000   0.000000   0.000000   0.000000   0.000000   0.000000
     3  C    0.000000   0.000000   0.000000   0.000000   0.000000   0.000000
     4  C    0.000000   0.000000   0.000000   0.000000   0.000000   0.000000
     5  C    0.000000   0.000000   0.000000   0.000000   0.000000   0.000000
     6  C    0.000000   0.000000   0.000000   0.000000   0.000000   0.000000
     7  H    0.000000   0.000000   0.000000   0.000000   0.000000   0.000000
     8  H    0.000000   0.000000   0.000000   0.000000   0.000000   0.000000
     9  H    0.000000   0.000000   0.000000   0.000000   0.000000   0.000000
    10  C    0.000000   0.000000   0.000000   0.000000   0.000000   0.000000
    11  C    0.000000   0.000000   0.000000   0.000000   0.000000   0.000000
    12  H    0.000000   0.000000   0.000000   0.000000   0.000000   0.000000
    13  H    0.000000   0.000000   0.000000   0.000000   0.000000   0.000000
    14  C    0.000000   0.000000   0.000000   0.000000   0.000000   0.000000
    15  C    0.000000   0.000000   0.000000   0.000000   0.000000   0.000000
    16  H    0.000000   0.000000   0.000000   0.000000   0.000000   0.000000
    17  H    0.000000   0.000000   0.000000   0.000000   0.000000   0.000000
    18  H    0.000000   0.000000   0.000000   0.000000   0.000000   0.000000
    19  C    0.000000   0.000000   0.000000   0.000000   0.000000   0.000000
    20  C    0.000000   0.000000   0.000000   0.000000   0.000000   0.000000
    21  C    0.000000   0.000000   0.000000   0.000000   0.000000   0.000000
    22  C    0.000000   0.000000   0.000000   0.000000   0.000000   0.000000
    23  C    0.000000   0.000000   0.000000   0.000000   0.000000   0.000000
    24  C    0.000000   0.000000   0.000000   0.000000   0.000000   0.000000
    25  H    0.968062   0.000000   0.000000   0.000000   0.000000   0.000000
    26  H    0.000000   0.967522   0.000000   0.000000   0.000000   0.000000
    27  H    0.000000   0.000000   0.968064   0.000000   0.000000   0.000000
    28  C    0.000000   0.000000   0.000000   4.037271   0.000000   0.000000
    29  C    0.000000   0.000000   0.000000   0.000000   4.037271   0.000000
    30  H    0.000000   0.000000   0.000000   0.000000   0.000000   0.968066
    31  H    0.000000   0.000000   0.000000   0.000000   0.000000   0.000000
    32  C    0.000000   0.000000   0.000000   0.000000   0.000000   0.000000
    33  C    0.000000   0.000000   0.000000   0.000000   0.000000   0.000000
    34  H    0.000000   0.000000   0.000000   0.000000   0.000000   0.000000
    35  H    0.000000   0.000000   0.000000   0.000000   0.000000   0.000000
    36  H    0.000000   0.000000   0.000000   0.000000   0.000000   0.000000
             31         32         33         34         35         36
     1  C    0.000000   0.000000   0.000000   0.000000   0.000000   0.000000
     2  C    0.000000   0.000000   0.000000   0.000000   0.000000   0.000000
     3  C    0.000000   0.000000   0.000000   0.000000   0.000000   0.000000
     4  C    0.000000   0.000000   0.000000   0.000000   0.000000   0.000000
     5  C    0.000000   0.000000   0.000000   0.000000   0.000000   0.000000
     6  C    0.000000   0.000000   0.000000   0.000000   0.000000   0.000000
     7  H    0.000000   0.000000   0.000000   0.000000   0.000000   0.000000
     8  H    0.000000   0.000000   0.000000   0.000000   0.000000   0.000000
     9  H    0.000000   0.000000   0.000000   0.000000   0.000000   0.000000
    10  C    0.000000   0.000000   0.000000   0.000000   0.000000   0.000000
    11  C    0.000000   0.000000   0.000000   0.000000   0.000000   0.000000
    12  H    0.000000   0.000000   0.000000   0.000000   0.000000   0.000000
    13  H    0.000000   0.000000   0.000000   0.000000   0.000000   0.000000
    14  C    0.000000   0.000000   0.000000   0.000000   0.000000   0.000000
    15  C    0.000000   0.000000   0.000000   0.000000   0.000000   0.000000
    16  H    0.000000   0.000000   0.000000   0.000000   0.000000   0.000000
    17  H    0.000000   0.000000   0.000000   0.000000   0.000000   0.000000
    18  H    0.000000   0.000000   0.000000   0.000000   0.000000   0.000000
    19  C    0.000000   0.000000   0.000000   0.000000   0.000000   0.000000
    20  C    0.000000   0.000000   0.000000   0.000000   0.000000   0.000000
    21  C    0.000000   0.000000   0.000000   0.000000   0.000000   0.000000
    22  C    0.000000   0.000000   0.000000   0.000000   0.000000   0.000000
    23  C    0.000000   0.000000   0.000000   0.000000   0.000000   0.000000
    24  C    0.000000   0.000000   0.000000   0.000000   0.000000   0.000000
    25  H    0.000000   0.000000   0.000000   0.000000   0.000000   0.000000
    26  H    0.000000   0.000000   0.000000   0.000000   0.000000   0.000000
    27  H    0.000000   0.000000   0.000000   0.000000   0.000000   0.000000
    28  C    0.000000   0.000000   0.000000   0.000000   0.000000   0.000000
    29  C    0.000000   0.000000   0.000000   0.000000   0.000000   0.000000
    30  H    0.000000   0.000000   0.000000   0.000000   0.000000   0.000000
    31  H    0.967519   0.000000   0.000000   0.000000   0.000000   0.000000
    32  C    0.000000   4.034712   0.000000   0.000000   0.000000   0.000000
    33  C    0.000000   0.000000   4.034715   0.000000   0.000000   0.000000
    34  H    0.000000   0.000000   0.000000   0.968064   0.000000   0.000000
    35  H    0.000000   0.000000   0.000000   0.000000   0.967522   0.000000
    36  H    0.000000   0.000000   0.000000   0.000000   0.000000   0.967523
 Mulliken atomic charges:
              1
     1  C   -0.034712
     2  C   -0.037273
     3  C    0.015141
     4  C    0.015141
     5  C   -0.037270
     6  C   -0.034717
     7  H    0.031938
     8  H    0.032478
     9  H    0.031936
    10  C   -0.037271
    11  C   -0.037271
    12  H    0.031934
    13  H    0.032481
    14  C   -0.034712
    15  C   -0.034715
    16  H    0.031936
    17  H    0.032478
    18  H    0.032477
    19  C   -0.034712
    20  C   -0.037273
    21  C    0.015141
    22  C    0.015141
    23  C   -0.037270
    24  C   -0.034717
    25  H    0.031938
    26  H    0.032478
    27  H    0.031936
    28  C   -0.037271
    29  C   -0.037271
    30  H    0.031934
    31  H    0.032481
    32  C   -0.034712
    33  C   -0.034715
    34  H    0.031936
    35  H    0.032478
    36  H    0.032477
 Sum of Mulliken charges=   0.00000
 Atomic charges with hydrogens summed into heavy atoms:
              1
     1  C   -0.002234
     2  C   -0.005336
     3  C    0.015141
     4  C    0.015141
     5  C   -0.005336
     6  C   -0.002236
     7  H    0.000000
     8  H    0.000000
     9  H    0.000000
    10  C   -0.005334
    11  C   -0.005335
    12  H    0.000000
    13  H    0.000000
    14  C   -0.002234
    15  C   -0.002238
    16  H    0.000000
    17  H    0.000000
    18  H    0.000000
    19  C   -0.002234
    20  C   -0.005336
    21  C    0.015141
    22  C    0.015141
    23  C   -0.005336
    24  C   -0.002236
    25  H    0.000000
    26  H    0.000000
    27  H    0.000000
    28  C   -0.005334
    29  C   -0.005335
    30  H    0.000000
    31  H    0.000000
    32  C   -0.002234
    33  C   -0.002238
    34  H    0.000000
    35  H    0.000000
    36  H    0.000000
 Sum of Mulliken charges=   0.00000
 Electronic spatial extent (au):  <R**2>= 11807.6915
 Charge=   -61.4284 electrons
 Dipole moment (field-independent basis, Debye):
    X=     0.0009    Y=     0.0003    Z=  -811.3967  Tot=   811.3967
 Quadrupole moment (field-independent basis, Debye-Ang):
   XX= -1240.1345   YY=  -646.1743   ZZ= -4657.9821
   XY=    -0.0017   XZ=     0.0024   YZ=     0.0009
 Traceless Quadrupole moment (field-independent basis, Debye-Ang):
   XX=   941.2958   YY=  1535.2560   ZZ= -2476.5518
   XY=    -0.0017   XZ=     0.0024   YZ=     0.0009
 Octapole moment (field-independent basis, Debye-Ang**2):
  XXX=     0.0094  YYY=     0.0027  ZZZ=-26155.9781  XYY=     0.0002
  XXY=    -0.0004  XXZ= -3410.3699  XZZ=     0.0135  YZZ=     0.0052
  YYZ= -1776.9794  XYZ=    -0.0046
 Hexadecapole moment (field-independent basis, Debye-Ang**3):
 XXXX=-10918.0566 YYYY= -3170.7981 ZZZZ=*********** XXXY=    -0.0170
 XXXZ=     0.0259 YYYX=    -0.0090 YYYZ=     0.0075 ZZZX=     0.0748
 ZZZY=     0.0289 XXYY= -2231.1636 XXZZ=-19482.9213 YYZZ=-10112.2541
 XXYZ=    -0.0012 YYXZ=     0.0006 ZZXY=    -0.0267
 N-N= 5.081283748537D+02 E-N= 0.000000000000D+00  KE=-1.190326495973D+03

 Test job not archived.
 1\1\GINC-RHUBARB\SP\RZINDO\STO-3G\C20H16\JK905\10-Oct-2007\0\\# ZINDO 
 PUNCH=MO IOP(3/33=1) NOSYMM\\04/10/07: Geometry from napthalene_b3lyp_
 of.log and reorientated to put long axi geometric centre on origin.\\0
 ,1\C,0,-2.4336,-0.70848,0.\C,0,-1.24478,-1.40258,0.\C,0,-0.0000018091,
 -0.716892,0.\C,0,0.0000023856,0.716891,0.\C,0,-1.24476,1.40257,0.\C,0,
 -2.4336,0.708481,0.\H,0,1.24204,-2.49027,0.\H,0,-3.37834,-1.24559,0.\H
 ,0,-1.24204,-2.49028,0.\C,0,1.24476,-1.40258,0.\C,0,1.24478,1.40258,0.
 \H,0,-1.24204,2.49027,0.\H,0,-3.37833,1.24559,0.\C,0,2.4336,0.708481,0
 .\C,0,2.43359,-0.70848,0.\H,0,1.24203,2.49028,0.\H,0,3.37835,1.24559,0
 .\H,0,3.37834,-1.24559,0.\C,0,-2.4336,-0.70848,5.5\C,0,-1.24478,-1.402
 58,5.5\C,0,-0.0000018091,-0.716892,5.5\C,0,0.0000023856,0.716891,5.5\C
 ,0,-1.24476,1.40257,5.5\C,0,-2.4336,0.708481,5.5\H,0,1.24204,-2.49027,
 5.5\H,0,-3.37834,-1.24559,5.5\H,0,-1.24204,-2.49028,5.5\C,0,1.24476,-1
 .40258,5.5\C,0,1.24478,1.40258,5.5\H,0,-1.24204,2.49027,5.5\H,0,-3.378
 33,1.24559,5.5\C,0,2.4336,0.708481,5.5\C,0,2.43359,-0.70848,5.5\H,0,1.
 24203,2.49028,5.5\H,0,3.37835,1.24559,5.5\H,0,3.37834,-1.24559,5.5\\Ve
 rsion=x86_64-Linux-G03RevB.05\HF=-123.354303\RMSD=1.294e-09\PG=CS [X(C
 20H16)]\\@


 I take a simple view of life: keep your eyes open and get on with it.
 -- Laurence Olivier
 Job cpu time:  0 days  0 hours  0 minutes  4.0 seconds.
 File lengths (MBytes):  RWF=     36 Int=      0 D2E=      0 Chk=     11 Scr=      1
 Normal termination of Gaussian 03 at Wed Oct 10 10:15:04 2007.
