 Entering Gaussian System, Link 0=g03
 Input=5_pair.com
 Output=5_pair.log
 Initial command:
 /usr/local/g03/l1.exe /export/home/joe2/code/svnJ/J_from_g03/examples/naphthalene_zindo/Gau-12564.inp -scrdir=/export/home/joe2/code/svnJ/J_from_g03/examples/naphthalene_zindo/
 Entering Link 1 = /usr/local/g03/l1.exe PID=     12565.
  
 Copyright (c) 1988,1990,1992,1993,1995,1998,2003, Gaussian, Inc.
                  All Rights Reserved.
  
 This is the Gaussian(R) 03 program.  It is based on the
 the Gaussian(R) 98 system (copyright 1998, Gaussian, Inc.),
 the Gaussian(R) 94 system (copyright 1995, Gaussian, Inc.),
 the Gaussian 92(TM) system (copyright 1992, Gaussian, Inc.),
 the Gaussian 90(TM) system (copyright 1990, Gaussian, Inc.),
 the Gaussian 88(TM) system (copyright 1988, Gaussian, Inc.),
 the Gaussian 86(TM) system (copyright 1986, Carnegie Mellon
 University), and the Gaussian 82(TM) system (copyright 1983,
 Carnegie Mellon University). Gaussian is a federally registered
 trademark of Gaussian, Inc.
  
 This software contains proprietary and confidential information,
 including trade secrets, belonging to Gaussian, Inc.
  
 This software is provided under written license and may be
 used, copied, transmitted, or stored only in accord with that
 written license.
  
 The following legend is applicable only to US Government
 contracts under DFARS:
  
                    RESTRICTED RIGHTS LEGEND
  
 Use, duplication or disclosure by the US Government is subject
 to restrictions as set forth in subparagraph (c)(1)(ii) of the
 Rights in Technical Data and Computer Software clause at DFARS
 252.227-7013.
  
 Gaussian, Inc.
 Carnegie Office Park, Building 6, Pittsburgh, PA 15106 USA
  
 The following legend is applicable only to US Government
 contracts under FAR:
  
                    RESTRICTED RIGHTS LEGEND
  
 Use, reproduction and disclosure by the US Government is subject
 to restrictions as set forth in subparagraph (c) of the
 Commercial Computer Software - Restricted Rights clause at FAR
 52.227-19.
  
 Gaussian, Inc.
 Carnegie Office Park, Building 6, Pittsburgh, PA 15106 USA
  
  
 ---------------------------------------------------------------
 Warning -- This program may not be used in any manner that
 competes with the business of Gaussian, Inc. or will provide
 assistance to any competitor of Gaussian, Inc.  The licensee
 of this program is prohibited from giving any competitor of
 Gaussian, Inc. access to this program.  By using this program,
 the user acknowledges that Gaussian, Inc. is engaged in the
 business of creating and licensing software in the field of
 computational chemistry and represents and warrants to the
 licensee that it is not a competitor of Gaussian, Inc. and that
 it will not use this program in any manner prohibited above.
 ---------------------------------------------------------------
  

 Cite this work as:
 Gaussian 03, Revision B.05,
 M. J. Frisch, G. W. Trucks, H. B. Schlegel, G. E. Scuseria, 
 M. A. Robb, J. R. Cheeseman, J. A. Montgomery, Jr., T. Vreven, 
 K. N. Kudin, J. C. Burant, J. M. Millam, S. S. Iyengar, J. Tomasi, 
 V. Barone, B. Mennucci, M. Cossi, G. Scalmani, N. Rega, 
 G. A. Petersson, H. Nakatsuji, M. Hada, M. Ehara, K. Toyota, 
 R. Fukuda, J. Hasegawa, M. Ishida, T. Nakajima, Y. Honda, O. Kitao, 
 H. Nakai, M. Klene, X. Li, J. E. Knox, H. P. Hratchian, J. B. Cross, 
 C. Adamo, J. Jaramillo, R. Gomperts, R. E. Stratmann, O. Yazyev, 
 A. J. Austin, R. Cammi, C. Pomelli, J. W. Ochterski, P. Y. Ayala, 
 K. Morokuma, G. A. Voth, P. Salvador, J. J. Dannenberg, 
 V. G. Zakrzewski, S. Dapprich, A. D. Daniels, M. C. Strain, 
 O. Farkas, D. K. Malick, A. D. Rabuck, K. Raghavachari, 
 J. B. Foresman, J. V. Ortiz, Q. Cui, A. G. Baboul, S. Clifford, 
 J. Cioslowski, B. B. Stefanov, G. Liu, A. Liashenko, P. Piskorz, 
 I. Komaromi, R. L. Martin, D. J. Fox, T. Keith, M. A. Al-Laham, 
 C. Y. Peng, A. Nanayakkara, M. Challacombe, P. M. W. Gill, 
 B. Johnson, W. Chen, M. W. Wong, C. Gonzalez, and J. A. Pople, 
 Gaussian, Inc., Pittsburgh PA, 2003.
 
 *************************************************
 Gaussian 03:  x86_64-Linux-G03RevB.05  8-Nov-2003
                    10-Oct-2007 
 *************************************************
 -----------------------------------
 # zindo punch=mo iop(3/33=1) nosymm
 -----------------------------------
 1/30=1,38=1/1;
 2/15=1,17=6,18=5,40=1/2;
 3/5=2,12=3,16=1,25=1,33=1,41=400000/1,2,8,3;
 4/5=3,11=1,35=1/1;
 5/5=2,35=1,38=5/2;
 8/6=1/1;
 9/42=1,49=10/14;
 6/7=2,8=2,9=2,10=2/1;
 99/5=1,9=1,10=32/99;
 ----------------------------------------------------------------------
 04/10/07: Geometry from napthalene_b3lyp_of.log and reorientated to pu
 t long axi geometric centre on origin.
 ----------------------------------------------------------------------
 Symbolic Z-matrix:
 Charge =  0 Multiplicity = 1
 C                    -2.4336   -0.70848   0. 
 C                    -1.24478  -1.40258   0. 
 C                    0.        -0.71689   0. 
 C                     0.        0.71689   0. 
 C                    -1.24476   1.40257   0. 
 C                    -2.4336    0.70848   0. 
 H                     1.24204  -2.49027   0. 
 H                    -3.37834  -1.24559   0. 
 H                    -1.24204  -2.49028   0. 
 C                     1.24476  -1.40258   0. 
 C                     1.24478   1.40258   0. 
 H                    -1.24204   2.49027   0. 
 H                    -3.37833   1.24559   0. 
 C                     2.4336    0.70848   0. 
 C                     2.43359  -0.70848   0. 
 H                     1.24203   2.49028   0. 
 H                     3.37835   1.24559   0. 
 H                     3.37834  -1.24559   0. 
 C                    -2.4336   -0.70848   5. 
 C                    -1.24478  -1.40258   5. 
 C                    0.        -0.71689   5. 
 C                     0.        0.71689   5. 
 C                    -1.24476   1.40257   5. 
 C                    -2.4336    0.70848   5. 
 H                     1.24204  -2.49027   5. 
 H                    -3.37834  -1.24559   5. 
 H                    -1.24204  -2.49028   5. 
 C                     1.24476  -1.40258   5. 
 C                     1.24478   1.40258   5. 
 H                    -1.24204   2.49027   5. 
 H                    -3.37833   1.24559   5. 
 C                     2.4336    0.70848   5. 
 C                     2.43359  -0.70848   5. 
 H                     1.24203   2.49028   5. 
 H                     3.37835   1.24559   5. 
 H                     3.37834  -1.24559   5. 
 
                          Input orientation:                          
 ---------------------------------------------------------------------
 Center     Atomic     Atomic              Coordinates (Angstroms)
 Number     Number      Type              X           Y           Z
 ---------------------------------------------------------------------
    1          6             0       -2.433600   -0.708480    0.000000
    2          6             0       -1.244780   -1.402580    0.000000
    3          6             0       -0.000002   -0.716892    0.000000
    4          6             0        0.000002    0.716891    0.000000
    5          6             0       -1.244760    1.402570    0.000000
    6          6             0       -2.433600    0.708481    0.000000
    7          1             0        1.242040   -2.490270    0.000000
    8          1             0       -3.378340   -1.245590    0.000000
    9          1             0       -1.242040   -2.490280    0.000000
   10          6             0        1.244760   -1.402580    0.000000
   11          6             0        1.244780    1.402580    0.000000
   12          1             0       -1.242040    2.490270    0.000000
   13          1             0       -3.378330    1.245590    0.000000
   14          6             0        2.433600    0.708481    0.000000
   15          6             0        2.433590   -0.708480    0.000000
   16          1             0        1.242030    2.490280    0.000000
   17          1             0        3.378350    1.245590    0.000000
   18          1             0        3.378340   -1.245590    0.000000
   19          6             0       -2.433600   -0.708480    5.000000
   20          6             0       -1.244780   -1.402580    5.000000
   21          6             0       -0.000002   -0.716892    5.000000
   22          6             0        0.000002    0.716891    5.000000
   23          6             0       -1.244760    1.402570    5.000000
   24          6             0       -2.433600    0.708481    5.000000
   25          1             0        1.242040   -2.490270    5.000000
   26          1             0       -3.378340   -1.245590    5.000000
   27          1             0       -1.242040   -2.490280    5.000000
   28          6             0        1.244760   -1.402580    5.000000
   29          6             0        1.244780    1.402580    5.000000
   30          1             0       -1.242040    2.490270    5.000000
   31          1             0       -3.378330    1.245590    5.000000
   32          6             0        2.433600    0.708481    5.000000
   33          6             0        2.433590   -0.708480    5.000000
   34          1             0        1.242030    2.490280    5.000000
   35          1             0        3.378350    1.245590    5.000000
   36          1             0        3.378340   -1.245590    5.000000
 ---------------------------------------------------------------------
                    Distance matrix (angstroms):
                    1          2          3          4          5
     1  C    0.000000
     2  C    1.376615   0.000000
     3  C    2.433613   1.421141   0.000000
     4  C    2.820302   2.457975   1.433783   0.000000
     5  C    2.422782   2.805150   2.457955   1.421122   0.000000
     6  C    1.416961   2.422782   2.820299   2.433617   1.376626
     7  H    4.084741   2.714285   2.165072   3.439264   4.619348
     8  H    1.086748   2.139328   3.419458   3.906985   3.400723
     9  H    2.143508   1.087703   2.165078   3.439275   3.892851
    10  C    3.743275   2.489540   1.421126   2.457962   3.750543
    11  C    4.241115   3.750578   2.457975   1.421141   2.489540
    12  H    3.413476   3.892851   3.439265   2.165073   1.087703
    13  H    2.170462   3.400712   3.906973   3.419452   2.139337
    14  C    5.069262   4.241115   2.820302   2.433612   3.743273
    15  C    4.867190   3.743285   2.433606   2.820289   4.241084
    16  H    4.872609   4.619370   3.439272   2.165073   2.714266
    17  H    6.131652   5.327864   3.906993   3.419467   4.625774
    18  H    5.836706   4.625785   3.419461   3.906981   5.327833
    19  C    5.000000   5.186045   5.560798   5.740566   5.556066
    20  C    5.186045   5.000000   5.198042   5.571503   5.733138
    21  C    5.560798   5.198042   5.000000   5.201513   5.571494
    22  C    5.740566   5.571503   5.201513   5.000000   5.198037
    23  C    5.556066   5.733138   5.571494   5.198037   5.000000
    24  C    5.196901   5.556066   5.740565   5.560800   5.186049
    25  H    6.456400   5.689230   5.448627   6.068652   6.807230
    26  H    5.116739   5.438449   6.057449   6.345434   6.046893
    27  H    5.440094   5.116942   5.448630   6.068658   6.336741
    28  C    6.245967   5.585500   5.198038   5.571497   6.250326
    29  C    6.556451   6.250347   5.571503   5.198042   5.585500
    30  H    6.054074   6.336741   6.068653   5.448628   5.116942
    31  H    5.450771   6.046887   6.345426   6.057446   5.438452
    32  C    7.120212   6.556452   5.740567   5.560797   6.245966
    33  C    6.977789   6.245973   5.560795   5.740560   6.556431
    34  H    6.981570   6.807245   6.068657   5.448627   5.689221
    35  H    7.911836   7.306582   6.345439   6.057455   6.811592
    36  H    7.685515   6.811599   6.057451   6.345431   7.306559
                    6          7          8          9         10
     6  C    0.000000
     7  H    4.872611   0.000000
     8  H    2.170467   4.785096   0.000000
     9  H    3.413486   2.484080   2.472454   0.000000
    10  C    4.241098   1.087693   4.625765   2.714271   0.000000
    11  C    3.743294   3.892851   5.327855   4.619376   2.805160
    12  H    2.143499   5.565648   4.303537   4.980550   4.619357
    13  H    1.086739   5.941756   2.491180   4.303540   5.327829
    14  C    4.867200   3.413477   6.131643   4.872618   2.422792
    15  C    5.069252   2.143494   5.836696   4.084736   1.376623
    16  H    4.084735   4.980550   5.941763   5.565661   3.892861
    17  H    5.836716   4.303542   7.201308   5.941778   3.400737
    18  H    6.131643   2.472449   6.756680   4.785098   2.139348
    19  C    5.196901   6.456400   5.116739   5.440094   6.245967
    20  C    5.556066   5.689230   5.438449   5.116942   5.585500
    21  C    5.740565   5.448627   6.057449   5.448630   5.198038
    22  C    5.560800   6.068652   6.345434   6.068658   5.571497
    23  C    5.186049   6.807230   6.046893   6.336741   6.250326
    24  C    5.000000   6.981571   5.450773   6.054080   6.556440
    25  H    6.981571   5.000000   6.920776   5.583068   5.116940
    26  H    5.450773   6.920776   5.000000   5.577906   6.811586
    27  H    6.054080   5.583068   5.577906   5.000000   5.689224
    28  C    6.556440   5.116940   6.811586   5.689224   5.000000
    29  C    6.245979   6.336741   7.306575   6.807249   5.733142
    30  H    5.440091   7.481740   6.597001   7.057328   6.807236
    31  H    5.116737   7.765595   5.586231   6.597004   7.306556
    32  C    6.977796   6.054075   7.911829   6.981576   5.556070
    33  C    7.120205   5.440089   7.685507   6.456397   5.186048
    34  H    6.456397   7.057328   7.765600   7.481750   6.336747
    35  H    7.685522   6.597005   8.766917   7.765612   6.046901
    36  H    7.911829   5.577903   8.405518   6.920778   5.438457
                   11         12         13         14         15
    11  C    0.000000
    12  H    2.714285   0.000000
    13  H    4.625775   2.472441   0.000000
    14  C    1.376614   4.084740   5.836696   0.000000
    15  C    2.422776   4.872603   6.131623   1.416961   0.000000
    16  H    1.087703   2.484070   4.785079   2.143513   3.413485
    17  H    2.139338   4.785105   6.756680   1.086756   2.170475
    18  H    3.400718   5.941764   7.201289   2.170467   1.086757
    19  C    6.556451   6.054074   5.450771   7.120212   6.977789
    20  C    6.250347   6.336741   6.046887   6.556452   6.245973
    21  C    5.571503   6.068653   6.345426   5.740567   5.560795
    22  C    5.198042   5.448628   6.057446   5.560797   5.740560
    23  C    5.585500   5.116942   5.438452   6.245966   6.556431
    24  C    6.245979   5.440091   5.116737   6.977796   7.120205
    25  H    6.336741   7.481740   7.765595   6.054075   5.440089
    26  H    7.306575   6.597001   5.586231   7.911829   7.685507
    27  H    6.807249   7.057328   6.597004   6.981576   6.456397
    28  C    5.733142   6.807236   7.306556   5.556070   5.186048
    29  C    5.000000   5.689230   6.811592   5.186045   5.556064
    30  H    5.689230   5.000000   5.577900   6.456400   6.981566
    31  H    6.811592   5.577900   5.000000   7.685507   7.911814
    32  C    5.186045   6.456400   7.685507   5.000000   5.196901
    33  C    5.556064   6.981566   7.911814   5.196901   5.000000
    34  H    5.116942   5.583064   6.920764   5.440096   6.054080
    35  H    5.438453   6.920783   8.405518   5.116741   5.450776
    36  H    6.046890   7.765601   8.766902   5.450773   5.116741
                   16         17         18         19         20
    16  H    0.000000
    17  H    2.472472   0.000000
    18  H    4.303550   2.491180   0.000000
    19  C    6.981570   7.911836   7.685515   0.000000
    20  C    6.807245   7.306582   6.811599   1.376615   0.000000
    21  C    6.068657   6.345439   6.057451   2.433613   1.421141
    22  C    5.448627   6.057455   6.345431   2.820302   2.457975
    23  C    5.689221   6.811592   7.306559   2.422782   2.805150
    24  C    6.456397   7.685522   7.911829   1.416961   2.422782
    25  H    7.057328   6.597005   5.577903   4.084741   2.714285
    26  H    7.765600   8.766917   8.405518   1.086748   2.139328
    27  H    7.481750   7.765612   6.920778   2.143508   1.087703
    28  C    6.336747   6.046901   5.438457   3.743275   2.489540
    29  C    5.116942   5.438453   6.046890   4.241115   3.750578
    30  H    5.583064   6.920783   7.765601   3.413476   3.892851
    31  H    6.920764   8.405518   8.766902   2.170462   3.400712
    32  C    5.440096   5.116741   5.450773   5.069262   4.241115
    33  C    6.054080   5.450776   5.116741   4.867190   3.743285
    34  H    5.000000   5.577913   6.597010   4.872609   4.619370
    35  H    5.577913   5.000000   5.586231   6.131652   5.327864
    36  H    6.597010   5.586231   5.000000   5.836706   4.625785
                   21         22         23         24         25
    21  C    0.000000
    22  C    1.433783   0.000000
    23  C    2.457955   1.421122   0.000000
    24  C    2.820299   2.433617   1.376626   0.000000
    25  H    2.165072   3.439264   4.619348   4.872611   0.000000
    26  H    3.419458   3.906985   3.400723   2.170467   4.785096
    27  H    2.165078   3.439275   3.892851   3.413486   2.484080
    28  C    1.421126   2.457962   3.750543   4.241098   1.087693
    29  C    2.457975   1.421141   2.489540   3.743294   3.892851
    30  H    3.439265   2.165073   1.087703   2.143499   5.565648
    31  H    3.906973   3.419452   2.139337   1.086739   5.941756
    32  C    2.820302   2.433612   3.743273   4.867200   3.413477
    33  C    2.433606   2.820289   4.241084   5.069252   2.143494
    34  H    3.439272   2.165073   2.714266   4.084735   4.980550
    35  H    3.906993   3.419467   4.625774   5.836716   4.303542
    36  H    3.419461   3.906981   5.327833   6.131643   2.472449
                   26         27         28         29         30
    26  H    0.000000
    27  H    2.472454   0.000000
    28  C    4.625765   2.714271   0.000000
    29  C    5.327855   4.619376   2.805160   0.000000
    30  H    4.303537   4.980550   4.619357   2.714285   0.000000
    31  H    2.491180   4.303540   5.327829   4.625775   2.472441
    32  C    6.131643   4.872618   2.422792   1.376614   4.084740
    33  C    5.836696   4.084736   1.376623   2.422776   4.872603
    34  H    5.941763   5.565661   3.892861   1.087703   2.484070
    35  H    7.201308   5.941778   3.400737   2.139338   4.785105
    36  H    6.756680   4.785098   2.139348   3.400718   5.941764
                   31         32         33         34         35
    31  H    0.000000
    32  C    5.836696   0.000000
    33  C    6.131623   1.416961   0.000000
    34  H    4.785079   2.143513   3.413485   0.000000
    35  H    6.756680   1.086756   2.170475   2.472472   0.000000
    36  H    7.201289   2.170467   1.086757   4.303550   2.491180
                   36
    36  H    0.000000
 Symmetry turned off by external request.
 Stoichiometry    C20H16
 Framework group  CS[X(C20H16)]
 Deg. of freedom    51
 Full point group                 CS      NOp   2
 Rotational constants (GHZ):      0.4410042      0.2625345      0.2086155
 Standard basis: VSTO-6G (5D, 7F)
                         Coordinates in L301:                         
 ---------------------------------------------------------------------
 Center     Atomic     Atomic              Coordinates (Angstroms)
 Number     Number      Type              X           Y           Z
 ---------------------------------------------------------------------
    1          6             0       -2.433600   -0.708480    0.000000
    2          6             0       -1.244780   -1.402580    0.000000
    3          6             0       -0.000002   -0.716892    0.000000
    4          6             0        0.000002    0.716891    0.000000
    5          6             0       -1.244760    1.402570    0.000000
    6          6             0       -2.433600    0.708481    0.000000
    7          1             0        1.242040   -2.490270    0.000000
    8          1             0       -3.378340   -1.245590    0.000000
    9          1             0       -1.242040   -2.490280    0.000000
   10          6             0        1.244760   -1.402580    0.000000
   11          6             0        1.244780    1.402580    0.000000
   12          1             0       -1.242040    2.490270    0.000000
   13          1             0       -3.378330    1.245590    0.000000
   14          6             0        2.433600    0.708481    0.000000
   15          6             0        2.433590   -0.708480    0.000000
   16          1             0        1.242030    2.490280    0.000000
   17          1             0        3.378350    1.245590    0.000000
   18          1             0        3.378340   -1.245590    0.000000
   19          6             0       -2.433600   -0.708480    5.000000
   20          6             0       -1.244780   -1.402580    5.000000
   21          6             0       -0.000002   -0.716892    5.000000
   22          6             0        0.000002    0.716891    5.000000
   23          6             0       -1.244760    1.402570    5.000000
   24          6             0       -2.433600    0.708481    5.000000
   25          1             0        1.242040   -2.490270    5.000000
   26          1             0       -3.378340   -1.245590    5.000000
   27          1             0       -1.242040   -2.490280    5.000000
   28          6             0        1.244760   -1.402580    5.000000
   29          6             0        1.244780    1.402580    5.000000
   30          1             0       -1.242040    2.490270    5.000000
   31          1             0       -3.378330    1.245590    5.000000
   32          6             0        2.433600    0.708481    5.000000
   33          6             0        2.433590   -0.708480    5.000000
   34          1             0        1.242030    2.490280    5.000000
   35          1             0        3.378350    1.245590    5.000000
   36          1             0        3.378340   -1.245590    5.000000
 ---------------------------------------------------------------------
 LdAtmC:  AtmChg=     4.000000     4.000000     4.000000     4.000000     4.000000
 LdAtmC:  AtmChg=     4.000000     1.000000     1.000000     1.000000     4.000000
 LdAtmC:  AtmChg=     4.000000     1.000000     1.000000     4.000000     4.000000
 LdAtmC:  AtmChg=     1.000000     1.000000     1.000000     4.000000     4.000000
 LdAtmC:  AtmChg=     4.000000     4.000000     4.000000     4.000000     1.000000
 LdAtmC:  AtmChg=     1.000000     1.000000     4.000000     4.000000     1.000000
 LdAtmC:  AtmChg=     1.000000     4.000000     4.000000     1.000000     1.000000
 LdAtmC:  AtmChg=     1.000000
 AtZEff=  -3.9000000  -3.9000000  -3.9000000  -3.9000000  -3.9000000  -3.9000000  -1.0000000  -1.0000000  -1.0000000  -3.9000000
 AtZEff=  -3.9000000  -1.0000000  -1.0000000  -3.9000000  -3.9000000  -1.0000000  -1.0000000  -1.0000000  -3.9000000  -3.9000000
 AtZEff=  -3.9000000  -3.9000000  -3.9000000  -3.9000000  -1.0000000  -1.0000000  -1.0000000  -3.9000000  -3.9000000  -1.0000000
 AtZEff=  -1.0000000  -3.9000000  -3.9000000  -1.0000000  -1.0000000  -1.0000000
 Integral buffers will be    131072 words long.
 Regular integral format.
 Two-electron integral symmetry is turned off.
    96 basis functions,   576 primitive gaussians,    96 cartesian basis functions
    48 alpha electrons       48 beta electrons
       nuclear repulsion energy       660.6615810183 Hartrees.
 Do NDO integrals.
 NPDir=0 NMtPBC=     1 NCelOv=     1 NCel=       1 NClECP=     1 NCelD=      1
         NCelK=      1 NCelE2=     1 NClLst=     1 CellRange=     0.0.
 One-electron integrals computed using PRISM.
 Entering OneElI...
 Calculate overlap and kinetic energy integrals
    NBasis =  96  MinDer = 0  MaxDer = 0
 Requested accuracy = 0.1000D-12
 PrsmSu:  NPrtUS=   1 ThrOK=F
 PRISM was handed     5691582 working-precision words and  1596 shell-pairs
 *** Overlap *** 
                1             2             3             4             5
      1  0.100000D+01
      2  0.000000D+00  0.100000D+01
      3  0.000000D+00  0.000000D+00  0.100000D+01
      4  0.000000D+00  0.000000D+00  0.000000D+00  0.100000D+01
      5  0.418191D+00  0.363502D+00 -0.212233D+00  0.000000D+00  0.100000D+01
      6 -0.363502D+00 -0.180916D+00  0.253964D+00  0.000000D+00  0.000000D+00
      7  0.212233D+00  0.253964D+00  0.105782D+00  0.000000D+00  0.000000D+00
      8  0.000000D+00  0.000000D+00  0.000000D+00  0.254061D+00  0.000000D+00
      9  0.846391D-01  0.110523D+00 -0.382034D-03  0.000000D+00  0.396101D+00
     10 -0.110523D+00 -0.138570D+00  0.594126D-03  0.000000D+00 -0.355765D+00
     11  0.382034D-03  0.594126D-03  0.333092D-01  0.000000D+00 -0.195974D+00
     12  0.000000D+00  0.000000D+00  0.000000D+00  0.333113D-01  0.000000D+00
     13  0.416121D-01  0.490741D-01  0.287429D-01  0.000000D+00  0.810676D-01
     14 -0.490741D-01 -0.527411D-01 -0.393103D-01  0.000000D+00 -0.537875D-01
     15 -0.287429D-01 -0.393103D-01 -0.864900D-02  0.000000D+00 -0.915831D-01
     16  0.000000D+00  0.000000D+00  0.000000D+00  0.143752D-01  0.000000D+00
     17  0.862706D-01  0.551960D-01  0.980127D-01  0.000000D+00  0.428279D-01
     18 -0.551960D-01 -0.801020D-02 -0.747485D-01  0.000000D+00  0.000000D+00
     19 -0.980127D-01 -0.747485D-01 -0.986481D-01  0.000000D+00 -0.584429D-01
     20  0.000000D+00  0.000000D+00  0.000000D+00  0.340845D-01  0.000000D+00
     21  0.398147D+00  0.000000D+00  0.407575D+00  0.000000D+00  0.862707D-01
     22  0.000000D+00  0.237410D+00  0.000000D+00  0.000000D+00  0.551950D-01
     23 -0.407575D+00  0.000000D+00 -0.331866D+00  0.000000D+00 -0.980133D-01
     24  0.000000D+00  0.000000D+00  0.000000D+00  0.237410D+00  0.000000D+00
     25  0.333994D-02  0.419336D-02 -0.203276D-02  0.000000D+00  0.460693D-01
     26  0.520724D+00 -0.425568D+00 -0.241947D+00  0.000000D+00  0.122081D+00
     27  0.121262D+00  0.818767D-01 -0.122434D+00  0.000000D+00  0.520189D+00
     28  0.632579D-02  0.913905D-02 -0.172452D-02  0.000000D+00  0.766371D-01
     29 -0.913905D-02 -0.130801D-01  0.278265D-02  0.000000D+00 -0.100826D+00
     30  0.172452D-02  0.278265D-02  0.114141D-02  0.000000D+00  0.000000D+00
     31  0.000000D+00  0.000000D+00  0.000000D+00  0.166649D-02  0.000000D+00
     32  0.207463D-02  0.271691D-02  0.155926D-02  0.000000D+00  0.622624D-02
     33 -0.271691D-02 -0.344846D-02 -0.225274D-02  0.000000D+00 -0.607896D-02
     34 -0.155926D-02 -0.225274D-02 -0.816083D-03  0.000000D+00 -0.684958D-02
     35  0.000000D+00  0.000000D+00  0.000000D+00  0.476789D-03  0.000000D+00
     36  0.126733D-01  0.593732D-02  0.159388D-01  0.000000D+00  0.493725D-02
     37  0.116094D+00 -0.615787D-01  0.127369D+00  0.000000D+00  0.129872D-01
     38  0.279191D-03  0.415846D-03  0.121063D-03  0.000000D+00  0.207463D-02
     39 -0.415846D-03 -0.620709D-03 -0.195609D-03  0.000000D+00 -0.271691D-02
     40 -0.121063D-03 -0.195609D-03 -0.574568D-05  0.000000D+00 -0.155926D-02
     41  0.000000D+00  0.000000D+00  0.000000D+00  0.512010D-04  0.000000D+00
     42  0.463427D-03  0.715545D-03  0.000000D+00  0.000000D+00  0.632565D-02
     43 -0.715545D-03 -0.111338D-02  0.000000D+00  0.000000D+00 -0.913886D-02
     44  0.000000D+00  0.000000D+00  0.898024D-04  0.000000D+00 -0.172448D-02
     45  0.000000D+00  0.000000D+00  0.000000D+00  0.898024D-04  0.000000D+00
     46  0.615270D-03  0.675946D-03  0.588250D-03  0.000000D+00  0.107651D-02
     47  0.303512D-04  0.440305D-04  0.148037D-04  0.000000D+00  0.216579D-03
     48  0.635625D-04  0.960250D-04 -0.887414D-05  0.000000D+00  0.106156D-02
     49  0.332567D-03  0.000000D+00  0.000000D+00  0.515149D-03  0.207259D-03
     50  0.000000D+00  0.621530D-04  0.000000D+00  0.000000D+00  0.738664D-04
     51  0.000000D+00  0.000000D+00  0.621530D-04  0.000000D+00 -0.431274D-04
     52 -0.515149D-03  0.000000D+00  0.000000D+00 -0.804627D-03 -0.310671D-03
     53  0.207259D-03  0.738664D-04 -0.431274D-04  0.310671D-03  0.332567D-03
     54 -0.738664D-04  0.832172D-05  0.166369D-04 -0.119845D-03  0.000000D+00
     55  0.431274D-04  0.166369D-04  0.271031D-04  0.699725D-04  0.000000D+00
     56 -0.310671D-03 -0.119845D-03  0.699725D-04 -0.467235D-03 -0.515149D-03
     57  0.777257D-04  0.531343D-04  0.000000D+00  0.109168D-03  0.200970D-03
     58 -0.531343D-04 -0.265866D-04  0.000000D+00 -0.802220D-04 -0.748388D-04
     59  0.000000D+00  0.000000D+00  0.124586D-04  0.000000D+00 -0.412251D-04
     60 -0.109168D-03 -0.802220D-04  0.000000D+00 -0.152363D-03 -0.300611D-03
     61  0.479151D-04  0.317632D-04  0.186038D-04  0.652596D-04  0.755368D-04
     62 -0.317632D-04 -0.152532D-04 -0.132143D-04 -0.463540D-04 -0.263642D-04
     63 -0.186038D-04 -0.132143D-04  0.000000D+00 -0.271497D-04 -0.448898D-04
     64 -0.652596D-04 -0.463540D-04 -0.271497D-04 -0.879291D-04 -0.105899D-03
     65  0.787125D-04  0.263076D-04  0.467150D-04  0.110644D-03  0.488909D-04
     66 -0.263076D-04  0.318121D-05 -0.167849D-04 -0.397549D-04  0.000000D+00
     67 -0.467150D-04 -0.167849D-04 -0.171717D-04 -0.705937D-04 -0.374055D-04
     68 -0.110644D-03 -0.397549D-04 -0.705937D-04 -0.154567D-03 -0.666730D-04
     69  0.201560D-03  0.000000D+00  0.854581D-04  0.301554D-03  0.787125D-04
     70  0.000000D+00  0.356983D-04  0.000000D+00  0.000000D+00  0.263072D-04
     71 -0.854581D-04  0.000000D+00 -0.351193D-05 -0.138360D-03 -0.467153D-04
     72 -0.301554D-03  0.000000D+00 -0.138360D-03 -0.452531D-03 -0.110644D-03
     73  0.131234D-04  0.115177D-04 -0.558328D-05  0.156676D-04  0.912627D-04
     74  0.353660D-03 -0.962376D-04 -0.547136D-04  0.509334D-03  0.166805D-03
     75  0.166154D-03  0.544062D-04 -0.813564D-04  0.228298D-03  0.353495D-03
     76  0.117453D-04  0.108054D-04 -0.203895D-05  0.146878D-04  0.727639D-04
     77 -0.108054D-04 -0.900520D-05  0.199235D-05 -0.143520D-04 -0.506703D-04
     78  0.203895D-05  0.199235D-05  0.117721D-05  0.270820D-05  0.000000D+00
     79 -0.146878D-04 -0.143520D-04  0.270820D-05 -0.179555D-04 -0.101766D-03
     80  0.478545D-05  0.417897D-05  0.239835D-05  0.568045D-05  0.115996D-04
     81 -0.417897D-05 -0.327805D-05 -0.221280D-05 -0.524098D-05 -0.721719D-05
     82 -0.239835D-05 -0.221280D-05  0.000000D+00 -0.300785D-05 -0.813211D-05
     83 -0.568045D-05 -0.524098D-05 -0.300785D-05 -0.654641D-05 -0.144949D-04
     84  0.369403D-04  0.111042D-04  0.298092D-04  0.465950D-04  0.179279D-04
     85  0.161992D-03 -0.419914D-04  0.868546D-04  0.222240D-03  0.376161D-04
     86  0.000000D+00  0.000000D+00  0.000000D+00  0.000000D+00  0.478544D-05
     87  0.000000D+00  0.000000D+00  0.000000D+00 -0.103585D-05 -0.417897D-05
     88  0.000000D+00  0.000000D+00  0.000000D+00  0.000000D+00 -0.239835D-05
     89  0.000000D+00 -0.103585D-05  0.000000D+00  0.000000D+00 -0.568045D-05
     90  0.135483D-05  0.145789D-05  0.000000D+00  0.149767D-05  0.117451D-04
     91 -0.145789D-05 -0.150190D-05  0.000000D+00 -0.169034D-05 -0.108052D-04
     92  0.000000D+00  0.000000D+00  0.000000D+00  0.000000D+00 -0.203892D-05
     93 -0.149767D-05 -0.169034D-05  0.000000D+00 -0.159292D-05 -0.146875D-04
     94  0.319760D-05  0.261035D-05  0.227169D-05  0.355089D-05  0.514988D-05
     95  0.000000D+00  0.000000D+00  0.000000D+00  0.000000D+00  0.128684D-05
     96  0.000000D+00  0.000000D+00  0.000000D+00  0.000000D+00  0.508943D-05
                6             7             8             9            10
      6  0.100000D+01
      7  0.000000D+00  0.100000D+01
      8  0.000000D+00  0.000000D+00  0.100000D+01
      9  0.355765D+00  0.195974D+00  0.000000D+00  0.100000D+01
     10 -0.199856D+00 -0.239946D+00  0.000000D+00  0.000000D+00  0.100000D+01
     11 -0.239946D+00  0.103561D+00  0.000000D+00  0.000000D+00  0.000000D+00
     12  0.000000D+00  0.000000D+00  0.235736D+00  0.000000D+00  0.000000D+00
     13  0.537875D-01  0.915831D-01  0.000000D+00  0.389948D+00  0.117580D-05
     14 -0.107884D-01 -0.722277D-01  0.000000D+00 -0.117580D-05  0.230728D+00
     15 -0.722277D-01 -0.913494D-01  0.000000D+00 -0.401898D+00 -0.164752D-05
     16  0.000000D+00  0.000000D+00  0.316316D-01  0.000000D+00  0.000000D+00
     17  0.000000D+00  0.584429D-01  0.000000D+00  0.810704D-01 -0.537887D-01
     18  0.148673D-01  0.000000D+00  0.000000D+00  0.537887D-01 -0.107874D-01
     19  0.000000D+00 -0.777017D-01  0.000000D+00 -0.915865D-01  0.722294D-01
     20  0.000000D+00  0.000000D+00  0.148673D-01  0.000000D+00  0.000000D+00
     21 -0.551950D-01  0.980133D-01  0.000000D+00  0.416123D-01 -0.490743D-01
     22 -0.800879D-02  0.747477D-01  0.000000D+00  0.490743D-01 -0.527412D-01
     23  0.747477D-01 -0.986495D-01  0.000000D+00 -0.287431D-01  0.393105D-01
     24  0.000000D+00  0.000000D+00  0.340845D-01  0.000000D+00  0.000000D+00
     25  0.541424D-01 -0.236809D-01  0.000000D+00  0.117112D+00  0.818180D-01
     26 -0.147808D+00  0.108759D-01  0.000000D+00  0.125287D-01 -0.166183D-01
     27  0.123245D-02 -0.489247D+00  0.000000D+00  0.117111D+00 -0.818167D-01
     28  0.100826D+00  0.000000D+00  0.000000D+00  0.396108D+00  0.355768D+00
     29 -0.127715D+00  0.000000D+00  0.000000D+00 -0.355768D+00 -0.199851D+00
     30  0.000000D+00  0.295730D-01  0.000000D+00  0.195978D+00  0.239950D+00
     31  0.000000D+00  0.000000D+00  0.295730D-01  0.000000D+00  0.000000D+00
     32  0.607896D-02  0.684958D-02  0.000000D+00  0.810675D-01  0.537874D-01
     33 -0.499051D-02 -0.746761D-02  0.000000D+00 -0.537874D-01 -0.107883D-01
     34 -0.746761D-02 -0.677733D-02  0.000000D+00 -0.915831D-01 -0.722276D-01
     35  0.000000D+00  0.000000D+00  0.163695D-02  0.000000D+00  0.000000D+00
     36  0.479566D-05  0.681342D-02  0.000000D+00  0.120610D-01 -0.585455D-02
     37 -0.109270D-01  0.135626D-01  0.000000D+00  0.479855D-02 -0.573066D-02
     38  0.271691D-02  0.155926D-02  0.000000D+00  0.416121D-01  0.490740D-01
     39 -0.344846D-02 -0.225274D-02  0.000000D+00 -0.490740D-01 -0.527410D-01
     40 -0.225274D-02 -0.816084D-03  0.000000D+00 -0.287429D-01 -0.393103D-01
     41  0.000000D+00  0.000000D+00  0.476788D-03  0.000000D+00  0.000000D+00
     42  0.913886D-02  0.172448D-02  0.000000D+00  0.846401D-01  0.110524D+00
     43 -0.130798D-01 -0.278258D-02  0.000000D+00 -0.110524D+00 -0.138571D+00
     44 -0.278258D-02  0.114138D-02  0.000000D+00 -0.382039D-03 -0.594133D-03
     45  0.000000D+00  0.000000D+00  0.166645D-02  0.000000D+00  0.000000D+00
     46  0.832971D-03  0.130394D-02  0.000000D+00  0.120608D-01  0.585443D-02
     47  0.279621D-03  0.160170D-03  0.000000D+00  0.479835D-02  0.573044D-02
     48  0.152544D-02  0.518003D-04  0.000000D+00  0.125287D-01  0.166182D-01
     49 -0.738664D-04  0.431274D-04  0.310671D-03  0.777257D-04 -0.531343D-04
     50  0.832172D-05  0.166369D-04  0.119845D-03  0.531343D-04 -0.265866D-04
     51  0.166369D-04  0.271031D-04 -0.699725D-04  0.000000D+00  0.000000D+00
     52  0.119845D-03 -0.699725D-04 -0.467235D-03 -0.109168D-03  0.802220D-04
     53  0.000000D+00  0.000000D+00  0.515149D-03  0.200970D-03 -0.748388D-04
     54  0.621530D-04  0.000000D+00  0.000000D+00  0.748388D-04  0.542410D-05
     55  0.000000D+00  0.621530D-04  0.000000D+00  0.412251D-04 -0.166129D-04
     56  0.000000D+00  0.000000D+00 -0.804627D-03 -0.300611D-03  0.121140D-03
     57  0.748388D-04  0.412251D-04  0.300611D-03  0.332567D-03  0.000000D+00
     58  0.542410D-05 -0.166129D-04 -0.121140D-03  0.000000D+00  0.621530D-04
     59 -0.166129D-04  0.264314D-04 -0.667304D-04  0.000000D+00  0.000000D+00
     60 -0.121140D-03 -0.667304D-04 -0.451012D-03 -0.515149D-03  0.000000D+00
     61  0.263642D-04  0.448898D-04  0.105899D-03  0.199185D-03  0.000000D+00
     62  0.218300D-05 -0.168387D-04 -0.397237D-04  0.000000D+00  0.352332D-04
     63 -0.168387D-04 -0.165984D-04 -0.676370D-04 -0.853846D-04  0.000000D+00
     64 -0.397237D-04 -0.676370D-04 -0.147489D-03 -0.297760D-03  0.000000D+00
     65  0.000000D+00  0.374055D-04  0.666730D-04  0.755385D-04 -0.263643D-04
     66  0.747243D-05  0.000000D+00  0.000000D+00  0.263643D-04  0.218344D-05
     67  0.000000D+00 -0.231960D-04 -0.546646D-04 -0.448908D-04  0.168387D-04
     68  0.000000D+00 -0.546646D-04 -0.899636D-04 -0.105901D-03  0.397240D-04
     69 -0.263072D-04  0.467153D-04  0.110644D-03  0.479153D-04 -0.317632D-04
     70  0.318153D-05  0.167847D-04  0.397542D-04  0.317632D-04 -0.152532D-04
     71  0.167847D-04 -0.171720D-04 -0.705940D-04 -0.186039D-04  0.132144D-04
     72  0.397542D-04 -0.705940D-04 -0.154567D-03 -0.652598D-04  0.463541D-04
     73  0.602141D-04 -0.263365D-04  0.121066D-03  0.162819D-03  0.555054D-04
     74 -0.978221D-04  0.719787D-05  0.229246D-03  0.366270D-04 -0.312013D-04
     75  0.000000D+00 -0.110745D-03  0.509081D-03  0.162818D-03 -0.555049D-04
     76  0.506703D-04  0.000000D+00  0.101766D-03  0.200972D-03  0.748386D-04
     77 -0.263282D-04  0.000000D+00 -0.761442D-04 -0.748386D-04  0.542495D-05
     78  0.000000D+00  0.115846D-04  0.000000D+00  0.412255D-04  0.166129D-04
     79 -0.761442D-04  0.000000D+00 -0.141344D-03 -0.300614D-03 -0.121140D-03
     80  0.721719D-05  0.813211D-05  0.144949D-04  0.755367D-04  0.263641D-04
     81 -0.323720D-05 -0.537374D-05 -0.957832D-05 -0.263641D-04  0.218301D-05
     82 -0.537374D-05 -0.452301D-05 -0.107926D-04 -0.448898D-04 -0.168387D-04
     83 -0.957832D-05 -0.107926D-04 -0.177050D-04 -0.105899D-03 -0.397237D-04
     84  0.000000D+00  0.169388D-04  0.217563D-04  0.356053D-04 -0.111340D-04
     85 -0.202663D-04  0.251545D-04  0.474942D-04  0.175286D-04 -0.143556D-04
     86  0.417897D-05  0.239835D-05  0.568045D-05  0.479151D-04  0.317631D-04
     87 -0.327804D-05 -0.221280D-05 -0.524097D-05 -0.317631D-04 -0.152532D-04
     88 -0.221280D-05  0.000000D+00 -0.300785D-05 -0.186038D-04 -0.132143D-04
     89 -0.524097D-05 -0.300785D-05 -0.654641D-05 -0.652595D-04 -0.463539D-04
     90  0.108052D-04  0.203892D-05  0.146875D-04  0.777263D-04  0.531345D-04
     91 -0.900509D-05 -0.199231D-05 -0.143518D-04 -0.531345D-04 -0.265866D-04
     92 -0.199231D-05  0.117719D-05 -0.270815D-05  0.000000D+00  0.000000D+00
     93 -0.143518D-04 -0.270815D-05 -0.179552D-04 -0.109169D-03 -0.802224D-04
     94  0.291406D-05  0.456168D-05  0.585903D-05  0.356049D-04  0.111338D-04
     95  0.126204D-05  0.000000D+00  0.136492D-05  0.175280D-04  0.143552D-04
     96  0.535059D-05  0.000000D+00  0.578677D-05  0.366268D-04  0.312012D-04
               11            12            13            14            15
     11  0.100000D+01
     12  0.000000D+00  0.100000D+01
     13  0.401898D+00  0.000000D+00  0.100000D+01
     14 -0.164752D-05  0.000000D+00  0.000000D+00  0.100000D+01
     15 -0.332405D+00  0.000000D+00  0.000000D+00  0.000000D+00  0.100000D+01
     16  0.000000D+00  0.230728D+00  0.000000D+00  0.000000D+00  0.000000D+00
     17  0.915865D-01  0.000000D+00  0.396110D+00 -0.355770D+00  0.195976D+00
     18  0.722294D-01  0.000000D+00  0.355770D+00 -0.199853D+00  0.239949D+00
     19 -0.913529D-01  0.000000D+00 -0.195976D+00  0.239949D+00  0.103567D+00
     20  0.000000D+00  0.316329D-01  0.000000D+00  0.000000D+00  0.000000D+00
     21  0.287431D-01  0.000000D+00  0.846385D-01 -0.110522D+00 -0.381940D-03
     22  0.393105D-01  0.000000D+00  0.110522D+00 -0.138569D+00 -0.593980D-03
     23 -0.864913D-02  0.000000D+00  0.381940D-03 -0.593980D-03  0.333089D-01
     24  0.000000D+00  0.143753D-01  0.000000D+00  0.000000D+00  0.000000D+00
     25 -0.116819D+00  0.000000D+00  0.120610D-01  0.585456D-02 -0.151175D-01
     26 -0.260071D-02  0.000000D+00  0.479844D-02 -0.573053D-02 -0.332887D-02
     27 -0.116818D+00  0.000000D+00  0.120608D-01 -0.585444D-02 -0.151172D-01
     28 -0.195978D+00  0.000000D+00  0.810694D-01  0.537878D-01 -0.915855D-01
     29  0.239950D+00  0.000000D+00 -0.537878D-01 -0.107871D-01  0.722284D-01
     30  0.103563D+00  0.000000D+00  0.915855D-01  0.722284D-01 -0.913522D-01
     31  0.000000D+00  0.235741D+00  0.000000D+00  0.000000D+00  0.000000D+00
     32  0.915831D-01  0.000000D+00  0.396101D+00  0.355765D+00  0.195974D+00
     33 -0.722276D-01  0.000000D+00 -0.355765D+00 -0.199855D+00 -0.239946D+00
     34 -0.913494D-01  0.000000D+00 -0.195974D+00 -0.239946D+00  0.103561D+00
     35  0.000000D+00  0.316315D-01  0.000000D+00  0.000000D+00  0.000000D+00
     36  0.151175D-01  0.000000D+00  0.117112D+00 -0.818178D-01  0.116819D+00
     37  0.332896D-02  0.000000D+00  0.125289D-01 -0.166185D-01  0.260075D-02
     38  0.287429D-01  0.000000D+00  0.846392D-01  0.110523D+00 -0.381944D-03
     39 -0.393103D-01  0.000000D+00 -0.110523D+00 -0.138570D+00  0.593985D-03
     40 -0.864905D-02  0.000000D+00  0.381944D-03  0.593985D-03  0.333093D-01
     41  0.000000D+00  0.143752D-01  0.000000D+00  0.000000D+00  0.000000D+00
     42  0.382039D-03  0.000000D+00  0.416131D-01  0.490752D-01 -0.287437D-01
     43 -0.594133D-03  0.000000D+00 -0.490752D-01 -0.527420D-01  0.393113D-01
     44  0.333097D-01  0.000000D+00  0.287437D-01  0.393113D-01 -0.864931D-02
     45  0.000000D+00  0.333117D-01  0.000000D+00  0.000000D+00  0.000000D+00
     46  0.151173D-01  0.000000D+00  0.117112D+00  0.818169D-01  0.116820D+00
     47  0.332881D-02  0.000000D+00  0.125285D-01  0.166180D-01  0.260066D-02
     48 -0.260069D-02  0.000000D+00  0.479848D-02  0.573058D-02 -0.332890D-02
     49  0.000000D+00  0.109168D-03  0.479151D-04 -0.317632D-04 -0.186038D-04
     50  0.000000D+00  0.802220D-04  0.317632D-04 -0.152532D-04 -0.132143D-04
     51  0.124586D-04  0.000000D+00  0.186038D-04 -0.132143D-04  0.000000D+00
     52  0.000000D+00 -0.152363D-03 -0.652596D-04  0.463540D-04  0.271497D-04
     53 -0.412251D-04  0.300611D-03  0.755368D-04 -0.263642D-04 -0.448898D-04
     54 -0.166129D-04  0.121140D-03  0.263642D-04  0.218300D-05 -0.168387D-04
     55  0.264314D-04  0.667304D-04  0.448898D-04 -0.168387D-04 -0.165984D-04
     56  0.667304D-04 -0.451012D-03 -0.105899D-03  0.397237D-04  0.676370D-04
     57  0.000000D+00  0.515149D-03  0.199185D-03  0.000000D+00 -0.853846D-04
     58  0.000000D+00  0.000000D+00  0.000000D+00  0.352332D-04  0.000000D+00
     59  0.621530D-04  0.000000D+00  0.853846D-04  0.000000D+00 -0.437290D-05
     60  0.000000D+00 -0.804627D-03 -0.297760D-03  0.000000D+00  0.138118D-03
     61  0.853846D-04  0.297760D-03  0.332567D-03  0.000000D+00  0.000000D+00
     62  0.000000D+00  0.000000D+00  0.000000D+00  0.621530D-04  0.000000D+00
     63 -0.437290D-05 -0.138118D-03  0.000000D+00  0.000000D+00  0.621530D-04
     64 -0.138118D-03 -0.446421D-03 -0.515149D-03  0.000000D+00  0.000000D+00
     65  0.448908D-04  0.105901D-03  0.200972D-03 -0.748389D-04  0.412251D-04
     66  0.168387D-04  0.397240D-04  0.748389D-04  0.542493D-05  0.166127D-04
     67 -0.165987D-04 -0.676385D-04 -0.412251D-04  0.166127D-04  0.264321D-04
     68 -0.676385D-04 -0.147492D-03 -0.300615D-03  0.121141D-03 -0.667305D-04
     69  0.186039D-04  0.652598D-04  0.777253D-04 -0.531341D-04  0.000000D+00
     70  0.132144D-04  0.463541D-04  0.531341D-04 -0.265866D-04  0.000000D+00
     71  0.000000D+00 -0.271498D-04  0.000000D+00  0.000000D+00  0.124585D-04
     72 -0.271498D-04 -0.879295D-04 -0.109168D-03  0.802217D-04  0.000000D+00
     73 -0.792502D-04  0.223444D-03  0.356053D-04  0.111340D-04 -0.287500D-04
     74 -0.488290D-05  0.461785D-04  0.175283D-04 -0.143553D-04 -0.833902D-05
     75 -0.792502D-04  0.223443D-03  0.356048D-04 -0.111339D-04 -0.287496D-04
     76 -0.412255D-04  0.300614D-03  0.755379D-04  0.263641D-04 -0.448906D-04
     77  0.166129D-04 -0.121140D-03 -0.263641D-04  0.218343D-05  0.168386D-04
     78  0.264317D-04  0.667311D-04  0.448906D-04  0.168386D-04 -0.165987D-04
     79  0.667311D-04 -0.451017D-03 -0.105900D-03 -0.397236D-04  0.676381D-04
     80  0.448898D-04  0.105899D-03  0.200970D-03  0.748388D-04  0.412251D-04
     81 -0.168387D-04 -0.397237D-04 -0.748388D-04  0.542413D-05 -0.166129D-04
     82 -0.165985D-04 -0.676370D-04 -0.412251D-04 -0.166129D-04  0.264314D-04
     83 -0.676370D-04 -0.147488D-03 -0.300611D-03 -0.121140D-03 -0.667305D-04
     84  0.287499D-04  0.448215D-04  0.162819D-03 -0.555054D-04  0.792502D-04
     85  0.833919D-05  0.212465D-04  0.366273D-04 -0.312015D-04  0.488295D-05
     86  0.186038D-04  0.652595D-04  0.777257D-04  0.531343D-04  0.000000D+00
     87 -0.132143D-04 -0.463539D-04 -0.531343D-04 -0.265866D-04  0.000000D+00
     88  0.000000D+00 -0.271497D-04  0.000000D+00  0.000000D+00  0.124586D-04
     89 -0.271497D-04 -0.879290D-04 -0.109168D-03 -0.802220D-04  0.000000D+00
     90  0.000000D+00  0.109169D-03  0.479160D-04  0.317635D-04 -0.186042D-04
     91  0.000000D+00 -0.802224D-04 -0.317635D-04 -0.152532D-04  0.132145D-04
     92  0.124587D-04  0.000000D+00  0.186042D-04  0.132145D-04  0.000000D+00
     93  0.000000D+00 -0.152364D-03 -0.652607D-04 -0.463546D-04  0.271502D-04
     94  0.287497D-04  0.448210D-04  0.162819D-03  0.555047D-04  0.792506D-04
     95  0.833890D-05  0.212458D-04  0.366265D-04  0.312010D-04  0.488284D-05
     96 -0.488287D-05  0.461783D-04  0.175284D-04  0.143554D-04 -0.833908D-05
               16            17            18            19            20
     16  0.100000D+01
     17  0.000000D+00  0.100000D+01
     18  0.000000D+00  0.000000D+00  0.100000D+01
     19  0.000000D+00  0.000000D+00  0.000000D+00  0.100000D+01
     20  0.235743D+00  0.000000D+00  0.000000D+00  0.000000D+00  0.100000D+01
     21  0.000000D+00  0.418185D+00 -0.363502D+00 -0.212226D+00  0.000000D+00
     22  0.000000D+00  0.363502D+00 -0.180925D+00 -0.253958D+00  0.000000D+00
     23  0.000000D+00  0.212226D+00 -0.253958D+00  0.105785D+00  0.000000D+00
     24  0.333110D-01  0.000000D+00  0.000000D+00  0.000000D+00  0.254056D+00
     25  0.000000D+00  0.107656D-02  0.833011D-03 -0.130400D-02  0.000000D+00
     26  0.000000D+00  0.129869D-01 -0.109269D-01 -0.135622D-01  0.000000D+00
     27  0.000000D+00  0.493725D-02  0.476065D-05 -0.681342D-02  0.000000D+00
     28  0.000000D+00  0.622670D-02  0.607935D-02 -0.685011D-02  0.000000D+00
     29  0.000000D+00 -0.607935D-02 -0.499074D-02  0.746813D-02  0.000000D+00
     30  0.000000D+00  0.685011D-02  0.746813D-02 -0.677788D-02  0.000000D+00
     31  0.316324D-01  0.000000D+00  0.000000D+00  0.000000D+00  0.163708D-02
     32  0.000000D+00  0.766371D-01  0.100826D+00  0.000000D+00  0.000000D+00
     33  0.000000D+00 -0.100826D+00 -0.127715D+00  0.000000D+00  0.000000D+00
     34  0.000000D+00  0.000000D+00  0.000000D+00  0.295730D-01  0.000000D+00
     35  0.235736D+00  0.000000D+00  0.000000D+00  0.000000D+00  0.295730D-01
     36  0.000000D+00  0.520189D+00  0.122346D-02  0.489247D+00  0.000000D+00
     37  0.000000D+00  0.122080D+00 -0.147806D+00 -0.108750D-01  0.000000D+00
     38  0.000000D+00  0.632582D-02  0.913909D-02 -0.172450D-02  0.000000D+00
     39  0.000000D+00 -0.913909D-02 -0.130801D-01  0.278262D-02  0.000000D+00
     40  0.000000D+00  0.172450D-02  0.278262D-02  0.114143D-02  0.000000D+00
     41  0.333113D-01  0.000000D+00  0.000000D+00  0.000000D+00  0.166650D-02
     42  0.000000D+00  0.207478D-02  0.271710D-02 -0.155938D-02  0.000000D+00
     43  0.000000D+00 -0.271710D-02 -0.344869D-02  0.225290D-02  0.000000D+00
     44  0.000000D+00  0.155938D-02  0.225290D-02 -0.816142D-03  0.000000D+00
     45  0.143756D-01  0.000000D+00  0.000000D+00  0.000000D+00  0.476827D-03
     46  0.000000D+00  0.460708D-01  0.541439D-01  0.236823D-01  0.000000D+00
     47  0.000000D+00  0.106158D-02  0.152548D-02 -0.517983D-04  0.000000D+00
     48  0.000000D+00  0.216594D-03  0.279641D-03 -0.160181D-03  0.000000D+00
     49  0.652596D-04  0.787125D-04 -0.263076D-04 -0.467150D-04  0.110644D-03
     50  0.463540D-04  0.263076D-04  0.318121D-05 -0.167849D-04  0.397549D-04
     51  0.271497D-04  0.467150D-04 -0.167849D-04 -0.171717D-04  0.705937D-04
     52 -0.879291D-04 -0.110644D-03  0.397549D-04  0.705937D-04 -0.154567D-03
     53  0.105899D-03  0.488909D-04  0.000000D+00 -0.374055D-04  0.666730D-04
     54  0.397237D-04  0.000000D+00  0.747243D-05  0.000000D+00  0.000000D+00
     55  0.676370D-04  0.374055D-04  0.000000D+00 -0.231960D-04  0.546646D-04
     56 -0.147489D-03 -0.666730D-04  0.000000D+00  0.546646D-04 -0.899636D-04
     57  0.297760D-03  0.755385D-04  0.263643D-04 -0.448908D-04  0.105901D-03
     58  0.000000D+00 -0.263643D-04  0.218344D-05  0.168387D-04 -0.397240D-04
     59  0.138118D-03  0.448908D-04  0.168387D-04 -0.165987D-04  0.676385D-04
     60 -0.446421D-03 -0.105901D-03 -0.397240D-04  0.676385D-04 -0.147492D-03
     61  0.515149D-03  0.200972D-03  0.748389D-04 -0.412251D-04  0.300615D-03
     62  0.000000D+00 -0.748389D-04  0.542493D-05  0.166127D-04 -0.121141D-03
     63  0.000000D+00  0.412251D-04  0.166127D-04  0.264321D-04  0.667305D-04
     64 -0.804627D-03 -0.300615D-03 -0.121141D-03  0.667305D-04 -0.451018D-03
     65  0.300615D-03  0.332567D-03  0.000000D+00  0.000000D+00  0.515149D-03
     66  0.121141D-03  0.000000D+00  0.621530D-04  0.000000D+00  0.000000D+00
     67 -0.667305D-04  0.000000D+00  0.000000D+00  0.621530D-04  0.000000D+00
     68 -0.451018D-03 -0.515149D-03  0.000000D+00  0.000000D+00 -0.804627D-03
     69  0.109168D-03  0.207257D-03 -0.738670D-04 -0.431263D-04  0.310669D-03
     70  0.802217D-04  0.738670D-04  0.832070D-05 -0.166368D-04  0.119846D-03
     71  0.000000D+00  0.431263D-04 -0.166368D-04  0.271031D-04  0.699707D-04
     72 -0.152362D-03 -0.310669D-03  0.119846D-03  0.699707D-04 -0.467231D-03
     73  0.448215D-04  0.515009D-05  0.291417D-05 -0.456185D-05  0.585928D-05
     74  0.212461D-04  0.376155D-04 -0.202662D-04 -0.251540D-04  0.474934D-04
     75  0.448208D-04  0.179279D-04  0.000000D+00 -0.169388D-04  0.217563D-04
     76  0.105900D-03  0.116003D-04  0.721752D-05 -0.813258D-05  0.144958D-04
     77 -0.397236D-04 -0.721752D-05 -0.323726D-05  0.537399D-05 -0.957879D-05
     78  0.676381D-04  0.813258D-05  0.537399D-05 -0.452326D-05  0.107932D-04
     79 -0.147491D-03 -0.144958D-04 -0.957879D-05  0.107932D-04 -0.177062D-04
     80  0.300611D-03  0.727639D-04  0.506703D-04  0.000000D+00  0.101766D-03
     81 -0.121140D-03 -0.506703D-04 -0.263282D-04  0.000000D+00 -0.761442D-04
     82 -0.667305D-04  0.000000D+00  0.000000D+00  0.115846D-04  0.000000D+00
     83 -0.451012D-03 -0.101766D-03 -0.761442D-04  0.000000D+00 -0.141344D-03
     84  0.223444D-03  0.353495D-03  0.000000D+00  0.110745D-03  0.509081D-03
     85  0.461789D-04  0.166803D-03 -0.978216D-04 -0.719735D-05  0.229244D-03
     86  0.109168D-03  0.117453D-04  0.108054D-04 -0.203893D-05  0.146878D-04
     87 -0.802220D-04 -0.108054D-04 -0.900524D-05  0.199232D-05 -0.143521D-04
     88  0.000000D+00  0.203893D-05  0.199232D-05  0.117723D-05  0.270817D-05
     89 -0.152363D-03 -0.146878D-04 -0.143521D-04  0.270817D-05 -0.179556D-04
     90  0.652607D-04  0.478573D-05  0.417920D-05 -0.239849D-05  0.568081D-05
     91 -0.463546D-04 -0.417920D-05 -0.327820D-05  0.221292D-05 -0.524128D-05
     92  0.271502D-04  0.239849D-05  0.221292D-05  0.000000D+00  0.300803D-05
     93 -0.879308D-04 -0.568081D-05 -0.524128D-05  0.300803D-05 -0.654684D-05
     94  0.223444D-03  0.912648D-04  0.602148D-04  0.263377D-04  0.121069D-03
     95  0.461779D-04  0.508953D-05  0.535068D-05  0.000000D+00  0.578689D-05
     96  0.212463D-04  0.128693D-05  0.126212D-05  0.000000D+00  0.136501D-05
               21            22            23            24            25
     21  0.100000D+01
     22  0.000000D+00  0.100000D+01
     23  0.000000D+00  0.000000D+00  0.100000D+01
     24  0.000000D+00  0.000000D+00  0.000000D+00  0.100000D+01
     25  0.615268D-03  0.675945D-03 -0.588246D-03  0.000000D+00  0.100000D+01
     26  0.116093D+00 -0.615788D-01 -0.127368D+00  0.000000D+00  0.880750D-03
     27  0.126731D-01  0.593719D-02 -0.159385D-01  0.000000D+00  0.615645D-01
     28  0.207471D-02  0.271701D-02 -0.155933D-02  0.000000D+00  0.520195D+00
     29 -0.271701D-02 -0.344858D-02  0.225283D-02  0.000000D+00 -0.122347D-02
     30  0.155933D-02  0.225283D-02 -0.816123D-03  0.000000D+00 -0.489250D+00
     31  0.000000D+00  0.000000D+00  0.000000D+00  0.476810D-03  0.000000D+00
     32  0.632552D-02  0.913867D-02  0.172444D-02  0.000000D+00  0.493725D-02
     33 -0.913867D-02 -0.130796D-01 -0.278252D-02  0.000000D+00 -0.479566D-05
     34 -0.172444D-02 -0.278252D-02  0.114136D-02  0.000000D+00 -0.681342D-02
     35  0.000000D+00  0.000000D+00  0.000000D+00  0.166641D-02  0.000000D+00
     36  0.121264D+00  0.818782D-01  0.122436D+00  0.000000D+00  0.164370D-03
     37  0.520729D+00 -0.425570D+00  0.241950D+00  0.000000D+00  0.701853D-04
     38  0.463416D-03  0.715527D-03  0.000000D+00  0.000000D+00  0.126733D-01
     39 -0.715527D-03 -0.111335D-02  0.000000D+00  0.000000D+00 -0.593731D-02
     40  0.000000D+00  0.000000D+00  0.898000D-04  0.000000D+00 -0.159387D-01
     41  0.000000D+00  0.000000D+00  0.000000D+00  0.898000D-04  0.000000D+00
     42  0.279197D-03  0.415856D-03 -0.121066D-03  0.000000D+00  0.121265D+00
     43 -0.415856D-03 -0.620724D-03  0.195614D-03  0.000000D+00 -0.818782D-01
     44  0.121066D-03  0.195614D-03 -0.574589D-05  0.000000D+00 -0.122437D+00
     45  0.000000D+00  0.000000D+00  0.000000D+00  0.512024D-04  0.000000D+00
     46  0.333997D-02  0.419340D-02  0.203279D-02  0.000000D+00  0.585154D-03
     47  0.635610D-04  0.960227D-04  0.887390D-05  0.000000D+00  0.233178D-02
     48  0.303519D-04  0.440315D-04 -0.148041D-04  0.000000D+00  0.627495D-01
     49  0.201560D-03  0.000000D+00 -0.854581D-04  0.301554D-03  0.131234D-04
     50  0.000000D+00  0.356983D-04  0.000000D+00  0.000000D+00  0.115177D-04
     51  0.854581D-04  0.000000D+00 -0.351193D-05  0.138360D-03 -0.558328D-05
     52 -0.301554D-03  0.000000D+00  0.138360D-03 -0.452531D-03 -0.156676D-04
     53  0.787125D-04  0.263072D-04 -0.467153D-04  0.110644D-03  0.912627D-04
     54 -0.263072D-04  0.318153D-05  0.167847D-04 -0.397542D-04  0.602141D-04
     55  0.467153D-04  0.167847D-04 -0.171720D-04  0.705940D-04 -0.263365D-04
     56 -0.110644D-03 -0.397542D-04  0.705940D-04 -0.154567D-03 -0.121066D-03
     57  0.479153D-04  0.317632D-04 -0.186039D-04  0.652598D-04  0.162819D-03
     58 -0.317632D-04 -0.152532D-04  0.132144D-04 -0.463541D-04  0.555054D-04
     59  0.186039D-04  0.132144D-04  0.000000D+00  0.271498D-04 -0.792502D-04
     60 -0.652598D-04 -0.463541D-04  0.271498D-04 -0.879295D-04 -0.223444D-03
     61  0.777253D-04  0.531341D-04  0.000000D+00  0.109168D-03  0.356053D-04
     62 -0.531341D-04 -0.265866D-04  0.000000D+00 -0.802217D-04  0.111340D-04
     63  0.000000D+00  0.000000D+00  0.124585D-04  0.000000D+00 -0.287500D-04
     64 -0.109168D-03 -0.802217D-04  0.000000D+00 -0.152362D-03 -0.448215D-04
     65  0.207257D-03  0.738670D-04  0.431263D-04  0.310669D-03  0.515009D-05
     66 -0.738670D-04  0.832070D-05 -0.166368D-04 -0.119846D-03  0.291417D-05
     67 -0.431263D-04 -0.166368D-04  0.271031D-04 -0.699707D-04 -0.456185D-05
     68 -0.310669D-03 -0.119846D-03 -0.699707D-04 -0.467231D-03 -0.585928D-05
     69  0.332567D-03  0.000000D+00  0.000000D+00  0.515149D-03  0.319759D-05
     70  0.000000D+00  0.621530D-04  0.000000D+00  0.000000D+00  0.261035D-05
     71  0.000000D+00  0.000000D+00  0.621530D-04  0.000000D+00 -0.227167D-05
     72 -0.515149D-03  0.000000D+00  0.000000D+00 -0.804627D-03 -0.355088D-05
     73  0.319759D-05  0.261035D-05 -0.227167D-05  0.355088D-05  0.561582D-03
     74  0.161991D-03 -0.419917D-04 -0.868542D-04  0.222239D-03  0.675189D-05
     75  0.369397D-04  0.111040D-04 -0.298088D-04  0.465943D-04  0.158110D-03
     76  0.478560D-05  0.417909D-05 -0.239844D-05  0.568064D-05  0.353496D-03
     77 -0.417909D-05 -0.327812D-05  0.221287D-05 -0.524113D-05  0.000000D+00
     78  0.239844D-05  0.221287D-05  0.000000D+00  0.300796D-05 -0.110745D-03
     79 -0.568064D-05 -0.524113D-05  0.300796D-05 -0.654665D-05 -0.509083D-03
     80  0.117449D-04  0.108050D-04  0.203888D-05  0.146872D-04  0.179279D-04
     81 -0.108050D-04 -0.900498D-05 -0.199228D-05 -0.143515D-04  0.000000D+00
     82 -0.203888D-05 -0.199228D-05  0.117717D-05 -0.270809D-05 -0.169388D-04
     83 -0.146872D-04 -0.143515D-04 -0.270809D-05 -0.179549D-04 -0.217563D-04
     84  0.166156D-03  0.544067D-04  0.813566D-04  0.228300D-03  0.161401D-05
     85  0.353661D-03 -0.962370D-04  0.547138D-04  0.509336D-03  0.000000D+00
     86  0.135481D-05  0.145786D-05  0.000000D+00  0.149764D-05  0.369402D-04
     87 -0.145786D-05 -0.150187D-05  0.000000D+00 -0.169030D-05 -0.111041D-04
     88  0.000000D+00  0.000000D+00  0.000000D+00  0.000000D+00 -0.298091D-04
     89 -0.149764D-05 -0.169030D-05  0.000000D+00 -0.159288D-05 -0.465950D-04
     90  0.000000D+00  0.000000D+00  0.000000D+00  0.000000D+00  0.166156D-03
     91  0.000000D+00  0.000000D+00  0.000000D+00 -0.103587D-05 -0.544065D-04
     92  0.000000D+00  0.000000D+00  0.000000D+00  0.000000D+00 -0.813571D-04
     93  0.000000D+00 -0.103587D-05  0.000000D+00  0.000000D+00 -0.228301D-03
     94  0.131235D-04  0.115178D-04  0.558336D-05  0.156677D-04  0.479671D-05
     95  0.000000D+00  0.000000D+00  0.000000D+00  0.000000D+00  0.149528D-04
     96  0.000000D+00  0.000000D+00  0.000000D+00  0.000000D+00  0.159942D-03
               26            27            28            29            30
     26  0.100000D+01
     27  0.627490D-01  0.100000D+01
     28  0.106161D-02  0.460704D-01  0.100000D+01
     29 -0.152551D-02 -0.541436D-01  0.000000D+00  0.100000D+01
     30  0.518028D-04 -0.236818D-01  0.000000D+00  0.000000D+00  0.100000D+01
     31  0.000000D+00  0.000000D+00  0.000000D+00  0.000000D+00  0.000000D+00
     32  0.216583D-03  0.107649D-02  0.428270D-01  0.000000D+00  0.584418D-01
     33 -0.279627D-03 -0.832964D-03  0.000000D+00  0.148670D-01  0.000000D+00
     34 -0.160173D-03 -0.130392D-02 -0.584418D-01  0.000000D+00 -0.777004D-01
     35  0.000000D+00  0.000000D+00  0.000000D+00  0.000000D+00  0.000000D+00
     36  0.233181D-02  0.585154D-03  0.107654D-02 -0.832994D-03  0.130397D-02
     37  0.608514D-01  0.233179D-02  0.216596D-03 -0.279643D-03  0.160184D-03
     38  0.303519D-04  0.615259D-03  0.862692D-01  0.551949D-01  0.980113D-01
     39 -0.440315D-04 -0.675935D-03 -0.551949D-01 -0.800992D-02 -0.747472D-01
     40 -0.148041D-04 -0.588239D-03 -0.980113D-01 -0.747472D-01 -0.986471D-01
     41  0.000000D+00  0.000000D+00  0.000000D+00  0.000000D+00  0.000000D+00
     42  0.635641D-04  0.333997D-02  0.418187D+00  0.363501D+00  0.212230D+00
     43 -0.960273D-04 -0.419339D-02 -0.363501D+00 -0.180920D+00 -0.253962D+00
     44 -0.887437D-05 -0.203279D-02 -0.212230D+00 -0.253962D+00  0.105781D+00
     45  0.000000D+00  0.000000D+00  0.000000D+00  0.000000D+00  0.000000D+00
     46  0.701843D-04  0.164365D-03  0.493715D-02 -0.477805D-05  0.681329D-02
     47  0.333018D-05  0.701818D-04  0.129865D-01  0.109266D-01  0.135619D-01
     48  0.101296D-04  0.880745D-03  0.122077D+00  0.147803D+00  0.108755D-01
     49  0.353660D-03  0.166154D-03  0.117453D-04 -0.108054D-04  0.203895D-05
     50 -0.962376D-04  0.544062D-04  0.108054D-04 -0.900520D-05  0.199235D-05
     51 -0.547136D-04 -0.813564D-04 -0.203895D-05  0.199235D-05  0.117721D-05
     52 -0.509334D-03 -0.228298D-03 -0.146878D-04  0.143520D-04 -0.270820D-05
     53  0.166805D-03  0.353495D-03  0.727639D-04 -0.506703D-04  0.000000D+00
     54 -0.978221D-04  0.000000D+00  0.506703D-04 -0.263282D-04  0.000000D+00
     55  0.719787D-05 -0.110745D-03  0.000000D+00  0.000000D+00  0.115846D-04
     56 -0.229246D-03 -0.509081D-03 -0.101766D-03  0.761442D-04  0.000000D+00
     57  0.366270D-04  0.162818D-03  0.200972D-03 -0.748386D-04  0.412255D-04
     58 -0.312013D-04 -0.555049D-04  0.748386D-04  0.542495D-05  0.166129D-04
     59 -0.488290D-05 -0.792502D-04 -0.412255D-04  0.166129D-04  0.264317D-04
     60 -0.461785D-04 -0.223443D-03 -0.300614D-03  0.121140D-03 -0.667311D-04
     61  0.175283D-04  0.356048D-04  0.755379D-04 -0.263641D-04  0.448906D-04
     62 -0.143553D-04 -0.111339D-04  0.263641D-04  0.218343D-05  0.168386D-04
     63 -0.833902D-05 -0.287496D-04 -0.448906D-04  0.168386D-04 -0.165987D-04
     64 -0.212461D-04 -0.448208D-04 -0.105900D-03  0.397236D-04 -0.676381D-04
     65  0.376155D-04  0.179279D-04  0.116003D-04 -0.721752D-05  0.813258D-05
     66 -0.202662D-04  0.000000D+00  0.721752D-05 -0.323726D-05  0.537399D-05
     67 -0.251540D-04 -0.169388D-04 -0.813258D-05  0.537399D-05 -0.452326D-05
     68 -0.474934D-04 -0.217563D-04 -0.144958D-04  0.957879D-05 -0.107932D-04
     69  0.161991D-03  0.369397D-04  0.478560D-05 -0.417909D-05  0.239844D-05
     70 -0.419917D-04  0.111040D-04  0.417909D-05 -0.327812D-05  0.221287D-05
     71 -0.868542D-04 -0.298088D-04 -0.239844D-05  0.221287D-05  0.000000D+00
     72 -0.222239D-03 -0.465943D-04 -0.568064D-05  0.524113D-05 -0.300796D-05
     73  0.675189D-05  0.158110D-03  0.353496D-03  0.000000D+00 -0.110745D-03
     74  0.561582D-03  0.159941D-03  0.508962D-05 -0.535077D-05  0.000000D+00
     75  0.159941D-03  0.561582D-03  0.912642D-04 -0.602147D-04 -0.263373D-04
     76  0.508962D-05  0.912642D-04  0.332567D-03  0.000000D+00  0.000000D+00
     77 -0.535077D-05 -0.602147D-04  0.000000D+00  0.621530D-04  0.000000D+00
     78  0.000000D+00 -0.263373D-04  0.000000D+00  0.000000D+00  0.621530D-04
     79 -0.578700D-05 -0.121069D-03 -0.515149D-03  0.000000D+00  0.000000D+00
     80  0.128687D-05  0.514983D-05  0.488903D-04  0.000000D+00  0.374051D-04
     81 -0.126206D-05 -0.291404D-05  0.000000D+00  0.747232D-05  0.000000D+00
     82  0.000000D+00 -0.456163D-05 -0.374051D-04  0.000000D+00 -0.231959D-04
     83 -0.136495D-05 -0.585897D-05 -0.666720D-04  0.000000D+00 -0.546639D-04
     84  0.149529D-04  0.479671D-05  0.515001D-05 -0.291412D-05  0.456179D-05
     85  0.156999D-03  0.149528D-04  0.128693D-05 -0.126213D-05  0.000000D+00
     86  0.000000D+00  0.319755D-05  0.787116D-04  0.263073D-04  0.467147D-04
     87  0.000000D+00 -0.261031D-05 -0.263073D-04  0.318117D-05 -0.167848D-04
     88  0.000000D+00 -0.227165D-05 -0.467147D-04 -0.167848D-04 -0.171718D-04
     89  0.000000D+00 -0.355083D-05 -0.110643D-03 -0.397544D-04 -0.705931D-04
     90  0.000000D+00  0.131235D-04  0.207257D-03  0.738666D-04  0.431271D-04
     91  0.000000D+00 -0.115178D-04 -0.738666D-04  0.832119D-05 -0.166370D-04
     92  0.000000D+00 -0.558336D-05 -0.431271D-04 -0.166370D-04  0.271029D-04
     93  0.000000D+00 -0.156677D-04 -0.310669D-03 -0.119846D-03 -0.699720D-04
     94  0.000000D+00  0.161397D-05  0.179276D-04  0.000000D+00  0.169386D-04
     95  0.000000D+00  0.000000D+00  0.376147D-04  0.202659D-04  0.251536D-04
     96  0.000000D+00  0.675186D-05  0.166802D-03  0.978211D-04  0.719773D-05
               31            32            33            34            35
     31  0.100000D+01
     32  0.000000D+00  0.100000D+01
     33  0.000000D+00  0.000000D+00  0.100000D+01
     34  0.000000D+00  0.000000D+00  0.000000D+00  0.100000D+01
     35  0.148670D-01  0.000000D+00  0.000000D+00  0.000000D+00  0.100000D+01
     36  0.000000D+00  0.460693D-01 -0.541424D-01  0.236809D-01  0.000000D+00
     37  0.000000D+00  0.106158D-02 -0.152547D-02 -0.518016D-04  0.000000D+00
     38  0.000000D+00  0.418191D+00  0.363503D+00 -0.212233D+00  0.000000D+00
     39  0.000000D+00 -0.363503D+00 -0.180916D+00  0.253964D+00  0.000000D+00
     40  0.000000D+00  0.212233D+00  0.253964D+00  0.105783D+00  0.000000D+00
     41  0.340838D-01  0.000000D+00  0.000000D+00  0.000000D+00  0.254061D+00
     42  0.000000D+00  0.862716D-01  0.551952D-01 -0.980144D-01  0.000000D+00
     43  0.000000D+00 -0.551952D-01 -0.800824D-02  0.747480D-01  0.000000D+00
     44  0.000000D+00  0.980144D-01  0.747480D-01 -0.986508D-01  0.000000D+00
     45  0.254057D+00  0.000000D+00  0.000000D+00  0.000000D+00  0.340849D-01
     46  0.000000D+00  0.520189D+00 -0.123695D-02  0.489247D+00  0.000000D+00
     47  0.000000D+00  0.122079D+00  0.147806D+00 -0.108757D-01  0.000000D+00
     48  0.000000D+00  0.129870D-01  0.109269D-01 -0.135624D-01  0.000000D+00
     49  0.146878D-04  0.478545D-05 -0.417897D-05 -0.239835D-05  0.568045D-05
     50  0.143520D-04  0.417897D-05 -0.327805D-05 -0.221280D-05  0.524098D-05
     51 -0.270820D-05  0.239835D-05 -0.221280D-05  0.000000D+00  0.300785D-05
     52 -0.179555D-04 -0.568045D-05  0.524098D-05  0.300785D-05 -0.654641D-05
     53  0.101766D-03  0.115996D-04 -0.721719D-05 -0.813211D-05  0.144949D-04
     54  0.761442D-04  0.721719D-05 -0.323720D-05 -0.537374D-05  0.957832D-05
     55  0.000000D+00  0.813211D-05 -0.537374D-05 -0.452301D-05  0.107926D-04
     56 -0.141344D-03 -0.144949D-04  0.957832D-05  0.107926D-04 -0.177050D-04
     57  0.300614D-03  0.755367D-04 -0.263641D-04 -0.448898D-04  0.105899D-03
     58  0.121140D-03  0.263641D-04  0.218301D-05 -0.168387D-04  0.397237D-04
     59 -0.667311D-04  0.448898D-04 -0.168387D-04 -0.165985D-04  0.676370D-04
     60 -0.451017D-03 -0.105899D-03  0.397237D-04  0.676370D-04 -0.147488D-03
     61  0.105900D-03  0.200970D-03 -0.748388D-04 -0.412251D-04  0.300611D-03
     62  0.397236D-04  0.748388D-04  0.542413D-05 -0.166129D-04  0.121140D-03
     63 -0.676381D-04  0.412251D-04 -0.166129D-04  0.264314D-04  0.667305D-04
     64 -0.147491D-03 -0.300611D-03  0.121140D-03  0.667305D-04 -0.451012D-03
     65  0.144958D-04  0.727639D-04 -0.506703D-04  0.000000D+00  0.101766D-03
     66  0.957879D-05  0.506703D-04 -0.263282D-04  0.000000D+00  0.761442D-04
     67 -0.107932D-04  0.000000D+00  0.000000D+00  0.115846D-04  0.000000D+00
     68 -0.177062D-04 -0.101766D-03  0.761442D-04  0.000000D+00 -0.141344D-03
     69  0.568064D-05  0.117449D-04 -0.108050D-04 -0.203888D-05  0.146872D-04
     70  0.524113D-05  0.108050D-04 -0.900498D-05 -0.199228D-05  0.143515D-04
     71 -0.300796D-05  0.203888D-05 -0.199228D-05  0.117717D-05  0.270809D-05
     72 -0.654665D-05 -0.146872D-04  0.143515D-04  0.270809D-05 -0.179549D-04
     73  0.509083D-03  0.179279D-04  0.000000D+00 -0.169388D-04  0.217563D-04
     74  0.578700D-05  0.128687D-05 -0.126206D-05  0.000000D+00  0.136495D-05
     75  0.121069D-03  0.514983D-05 -0.291404D-05 -0.456163D-05  0.585897D-05
     76  0.515149D-03  0.488903D-04  0.000000D+00 -0.374051D-04  0.666720D-04
     77  0.000000D+00  0.000000D+00  0.747232D-05  0.000000D+00  0.000000D+00
     78  0.000000D+00  0.374051D-04  0.000000D+00 -0.231959D-04  0.546639D-04
     79 -0.804627D-03 -0.666720D-04  0.000000D+00  0.546639D-04 -0.899623D-04
     80  0.666720D-04  0.332567D-03  0.000000D+00  0.000000D+00  0.515149D-03
     81  0.000000D+00  0.000000D+00  0.621530D-04  0.000000D+00  0.000000D+00
     82 -0.546639D-04  0.000000D+00  0.000000D+00  0.621530D-04  0.000000D+00
     83 -0.899623D-04 -0.515149D-03  0.000000D+00  0.000000D+00 -0.804627D-03
     84  0.585919D-05  0.912627D-04 -0.602141D-04  0.263365D-04  0.121066D-03
     85  0.136503D-05  0.508953D-05 -0.535068D-05  0.000000D+00  0.578688D-05
     86  0.110643D-03  0.207259D-03  0.738664D-04 -0.431273D-04  0.310671D-03
     87 -0.397544D-04 -0.738664D-04  0.832172D-05  0.166369D-04 -0.119845D-03
     88 -0.705931D-04  0.431273D-04  0.166369D-04  0.271031D-04  0.699724D-04
     89 -0.154565D-03 -0.310671D-03 -0.119845D-03  0.699724D-04 -0.467235D-03
     90  0.310669D-03  0.787131D-04  0.263071D-04 -0.467156D-04  0.110645D-03
     91 -0.119846D-03 -0.263071D-04  0.318171D-05  0.167847D-04 -0.397542D-04
     92 -0.699720D-04  0.467156D-04  0.167847D-04 -0.171721D-04  0.705946D-04
     93 -0.467232D-03 -0.110645D-03 -0.397542D-04  0.705946D-04 -0.154568D-03
     94  0.217559D-04  0.353495D-03  0.000000D+00  0.110745D-03  0.509081D-03
     95  0.474924D-04  0.166803D-03  0.978216D-04 -0.719780D-05  0.229244D-03
     96  0.229242D-03  0.376157D-04  0.202662D-04 -0.251543D-04  0.474938D-04
               36            37            38            39            40
     36  0.100000D+01
     37  0.627504D-01  0.100000D+01
     38  0.333994D-02  0.635641D-04  0.100000D+01
     39 -0.419337D-02 -0.960274D-04  0.000000D+00  0.100000D+01
     40  0.203276D-02  0.887436D-05  0.000000D+00  0.000000D+00  0.100000D+01
     41  0.000000D+00  0.000000D+00  0.000000D+00  0.000000D+00  0.000000D+00
     42  0.615279D-03  0.303534D-04  0.398147D+00 -0.287640D-05 -0.407575D+00
     43 -0.675957D-03 -0.440336D-04  0.287640D-05  0.237410D+00 -0.401758D-05
     44  0.588257D-03  0.148049D-04  0.407575D+00 -0.401758D-05 -0.331866D+00
     45  0.000000D+00  0.000000D+00  0.000000D+00  0.000000D+00  0.000000D+00
     46  0.615655D-01  0.880781D-03  0.121261D+00 -0.818766D-01  0.122433D+00
     47  0.880733D-03  0.101296D-04  0.520720D+00  0.425567D+00  0.241943D+00
     48  0.701841D-04  0.333034D-05  0.116093D+00  0.615788D-01 -0.127368D+00
     49  0.369403D-04  0.161992D-03  0.000000D+00  0.000000D+00  0.000000D+00
     50  0.111042D-04 -0.419914D-04  0.000000D+00  0.000000D+00  0.000000D+00
     51  0.298092D-04  0.868546D-04  0.000000D+00  0.000000D+00  0.000000D+00
     52 -0.465950D-04 -0.222240D-03  0.000000D+00  0.103585D-05  0.000000D+00
     53  0.179279D-04  0.376161D-04  0.478544D-05 -0.417897D-05 -0.239835D-05
     54  0.000000D+00 -0.202663D-04  0.417897D-05 -0.327804D-05 -0.221280D-05
     55  0.169388D-04  0.251545D-04  0.239835D-05 -0.221280D-05  0.000000D+00
     56 -0.217563D-04 -0.474942D-04 -0.568045D-05  0.524097D-05  0.300785D-05
     57  0.356053D-04  0.175286D-04  0.479151D-04 -0.317631D-04 -0.186038D-04
     58 -0.111340D-04 -0.143556D-04  0.317631D-04 -0.152532D-04 -0.132143D-04
     59  0.287499D-04  0.833919D-05  0.186038D-04 -0.132143D-04  0.000000D+00
     60 -0.448215D-04 -0.212465D-04 -0.652595D-04  0.463539D-04  0.271497D-04
     61  0.162819D-03  0.366273D-04  0.777257D-04 -0.531343D-04  0.000000D+00
     62 -0.555054D-04 -0.312015D-04  0.531343D-04 -0.265866D-04  0.000000D+00
     63  0.792502D-04  0.488295D-05  0.000000D+00  0.000000D+00  0.124586D-04
     64 -0.223444D-03 -0.461789D-04 -0.109168D-03  0.802220D-04  0.000000D+00
     65  0.353495D-03  0.166803D-03  0.117453D-04 -0.108054D-04  0.203893D-05
     66  0.000000D+00 -0.978216D-04  0.108054D-04 -0.900524D-05  0.199232D-05
     67  0.110745D-03 -0.719735D-05 -0.203893D-05  0.199232D-05  0.117723D-05
     68 -0.509081D-03 -0.229244D-03 -0.146878D-04  0.143521D-04 -0.270817D-05
     69  0.166156D-03  0.353661D-03  0.135481D-05 -0.145786D-05  0.000000D+00
     70  0.544067D-04 -0.962370D-04  0.145786D-05 -0.150187D-05  0.000000D+00
     71  0.813566D-04  0.547138D-04  0.000000D+00  0.000000D+00  0.000000D+00
     72 -0.228300D-03 -0.509336D-03 -0.149764D-05  0.169030D-05  0.000000D+00
     73  0.161401D-05  0.000000D+00  0.369402D-04 -0.111041D-04 -0.298091D-04
     74  0.149529D-04  0.156999D-03  0.000000D+00  0.000000D+00  0.000000D+00
     75  0.479671D-05  0.149528D-04  0.319755D-05 -0.261031D-05 -0.227165D-05
     76  0.515001D-05  0.128693D-05  0.787116D-04 -0.263073D-04 -0.467147D-04
     77 -0.291412D-05 -0.126213D-05  0.263073D-04  0.318117D-05 -0.167848D-04
     78  0.456179D-05  0.000000D+00  0.467147D-04 -0.167848D-04 -0.171718D-04
     79 -0.585919D-05 -0.136503D-05 -0.110643D-03  0.397544D-04  0.705931D-04
     80  0.912627D-04  0.508953D-05  0.207259D-03 -0.738664D-04  0.431273D-04
     81 -0.602141D-04 -0.535068D-05  0.738664D-04  0.832172D-05  0.166369D-04
     82  0.263365D-04  0.000000D+00 -0.431273D-04  0.166369D-04  0.271031D-04
     83 -0.121066D-03 -0.578688D-05 -0.310671D-03  0.119845D-03 -0.699724D-04
     84  0.561582D-03  0.159943D-03  0.131234D-04 -0.115177D-04  0.558328D-05
     85  0.159943D-03  0.561582D-03  0.000000D+00  0.000000D+00  0.000000D+00
     86  0.131234D-04  0.000000D+00  0.332567D-03  0.000000D+00  0.000000D+00
     87 -0.115177D-04  0.000000D+00  0.000000D+00  0.621530D-04  0.000000D+00
     88  0.558328D-05  0.000000D+00  0.000000D+00  0.000000D+00  0.621530D-04
     89 -0.156676D-04  0.000000D+00 -0.515149D-03  0.000000D+00  0.000000D+00
     90  0.319764D-05  0.000000D+00  0.201560D-03  0.000000D+00 -0.854581D-04
     91 -0.261039D-05  0.000000D+00  0.000000D+00  0.356983D-04  0.000000D+00
     92  0.227171D-05  0.000000D+00  0.854581D-04  0.000000D+00 -0.351193D-05
     93 -0.355094D-05  0.000000D+00 -0.301554D-03  0.000000D+00  0.138360D-03
     94  0.158112D-03  0.675208D-05  0.166153D-03 -0.544064D-04  0.813560D-04
     95  0.675177D-05  0.000000D+00  0.353658D-03  0.962382D-04  0.547133D-04
     96  0.000000D+00  0.000000D+00  0.161991D-03  0.419917D-04 -0.868542D-04
               41            42            43            44            45
     41  0.100000D+01
     42  0.000000D+00  0.100000D+01
     43  0.000000D+00  0.000000D+00  0.100000D+01
     44  0.000000D+00  0.000000D+00  0.000000D+00  0.100000D+01
     45  0.237410D+00  0.000000D+00  0.000000D+00  0.000000D+00  0.100000D+01
     46  0.000000D+00  0.126731D-01 -0.593720D-02  0.159385D-01  0.000000D+00
     47  0.000000D+00  0.116092D+00  0.615791D-01  0.127366D+00  0.000000D+00
     48  0.000000D+00  0.520719D+00  0.425567D+00 -0.241944D+00  0.000000D+00
     49  0.000000D+00  0.135483D-05 -0.145789D-05  0.000000D+00  0.149767D-05
     50  0.103585D-05  0.145789D-05 -0.150190D-05  0.000000D+00  0.169034D-05
     51  0.000000D+00  0.000000D+00  0.000000D+00  0.000000D+00  0.000000D+00
     52  0.000000D+00 -0.149767D-05  0.169034D-05  0.000000D+00 -0.159292D-05
     53  0.568045D-05  0.117451D-04 -0.108052D-04 -0.203892D-05  0.146875D-04
     54  0.524097D-05  0.108052D-04 -0.900509D-05 -0.199231D-05  0.143518D-04
     55  0.300785D-05  0.203892D-05 -0.199231D-05  0.117719D-05  0.270815D-05
     56 -0.654641D-05 -0.146875D-04  0.143518D-04  0.270815D-05 -0.179552D-04
     57  0.652595D-04  0.777263D-04 -0.531345D-04  0.000000D+00  0.109169D-03
     58  0.463539D-04  0.531345D-04 -0.265866D-04  0.000000D+00  0.802224D-04
     59  0.271497D-04  0.000000D+00  0.000000D+00  0.124587D-04  0.000000D+00
     60 -0.879290D-04 -0.109169D-03  0.802224D-04  0.000000D+00 -0.152364D-03
     61  0.109168D-03  0.479160D-04 -0.317635D-04  0.186042D-04  0.652607D-04
     62  0.802220D-04  0.317635D-04 -0.152532D-04  0.132145D-04  0.463546D-04
     63  0.000000D+00 -0.186042D-04  0.132145D-04  0.000000D+00 -0.271502D-04
     64 -0.152363D-03 -0.652607D-04  0.463546D-04 -0.271502D-04 -0.879308D-04
     65  0.146878D-04  0.478573D-05 -0.417920D-05  0.239849D-05  0.568081D-05
     66  0.143521D-04  0.417920D-05 -0.327820D-05  0.221292D-05  0.524128D-05
     67 -0.270817D-05 -0.239849D-05  0.221292D-05  0.000000D+00 -0.300803D-05
     68 -0.179556D-04 -0.568081D-05  0.524128D-05 -0.300803D-05 -0.654684D-05
     69  0.149764D-05  0.000000D+00  0.000000D+00  0.000000D+00  0.000000D+00
     70  0.169030D-05  0.000000D+00  0.000000D+00  0.000000D+00  0.103587D-05
     71  0.000000D+00  0.000000D+00  0.000000D+00  0.000000D+00  0.000000D+00
     72 -0.159288D-05  0.000000D+00  0.103587D-05  0.000000D+00  0.000000D+00
     73  0.465950D-04  0.166156D-03 -0.544065D-04 -0.813571D-04  0.228301D-03
     74  0.000000D+00  0.000000D+00  0.000000D+00  0.000000D+00  0.000000D+00
     75  0.355083D-05  0.131235D-04 -0.115178D-04 -0.558336D-05  0.156677D-04
     76  0.110643D-03  0.207257D-03 -0.738666D-04 -0.431271D-04  0.310669D-03
     77  0.397544D-04  0.738666D-04  0.832119D-05 -0.166370D-04  0.119846D-03
     78  0.705931D-04  0.431271D-04 -0.166370D-04  0.271029D-04  0.699720D-04
     79 -0.154565D-03 -0.310669D-03  0.119846D-03  0.699720D-04 -0.467232D-03
     80  0.310671D-03  0.787131D-04 -0.263071D-04  0.467156D-04  0.110645D-03
     81  0.119845D-03  0.263071D-04  0.318171D-05  0.167847D-04  0.397542D-04
     82 -0.699724D-04 -0.467156D-04  0.167847D-04 -0.171721D-04 -0.705946D-04
     83 -0.467235D-03 -0.110645D-03  0.397542D-04 -0.705946D-04 -0.154568D-03
     84  0.156676D-04  0.319764D-05 -0.261039D-05  0.227171D-05  0.355094D-05
     85  0.000000D+00  0.000000D+00  0.000000D+00  0.000000D+00  0.000000D+00
     86  0.515149D-03  0.201560D-03  0.000000D+00  0.854581D-04  0.301554D-03
     87  0.000000D+00  0.000000D+00  0.356983D-04  0.000000D+00  0.000000D+00
     88  0.000000D+00 -0.854581D-04  0.000000D+00 -0.351193D-05 -0.138360D-03
     89 -0.804627D-03 -0.301554D-03  0.000000D+00 -0.138360D-03 -0.452531D-03
     90  0.301554D-03  0.332567D-03  0.000000D+00  0.000000D+00  0.515149D-03
     91  0.000000D+00  0.000000D+00  0.621530D-04  0.000000D+00  0.000000D+00
     92  0.138360D-03  0.000000D+00  0.000000D+00  0.621530D-04  0.000000D+00
     93 -0.452531D-03 -0.515149D-03  0.000000D+00  0.000000D+00 -0.804627D-03
     94  0.228297D-03  0.369398D-04 -0.111040D-04  0.298088D-04  0.465944D-04
     95  0.509331D-03  0.161990D-03  0.419922D-04  0.868535D-04  0.222237D-03
     96  0.222239D-03  0.353658D-03  0.962381D-04 -0.547134D-04  0.509331D-03
               46            47            48            49            50
     46  0.100000D+01
     47  0.627472D-01  0.100000D+01
     48  0.233174D-02  0.608514D-01  0.100000D+01
     49  0.319760D-05  0.000000D+00  0.000000D+00  0.100000D+01
     50  0.261035D-05  0.000000D+00  0.000000D+00  0.000000D+00  0.100000D+01
     51  0.227169D-05  0.000000D+00  0.000000D+00  0.000000D+00  0.000000D+00
     52 -0.355089D-05  0.000000D+00  0.000000D+00  0.000000D+00  0.000000D+00
     53  0.514988D-05  0.128684D-05  0.508943D-05  0.418191D+00  0.363502D+00
     54  0.291406D-05  0.126204D-05  0.535059D-05 -0.363502D+00 -0.180916D+00
     55  0.456168D-05  0.000000D+00  0.000000D+00  0.212233D+00  0.253964D+00
     56 -0.585903D-05 -0.136492D-05 -0.578677D-05  0.000000D+00  0.000000D+00
     57  0.356049D-04  0.175280D-04  0.366268D-04  0.846391D-01  0.110523D+00
     58  0.111338D-04  0.143552D-04  0.312012D-04 -0.110523D+00 -0.138570D+00
     59  0.287497D-04  0.833890D-05 -0.488287D-05  0.382034D-03  0.594126D-03
     60 -0.448210D-04 -0.212458D-04 -0.461783D-04  0.000000D+00  0.000000D+00
     61  0.162819D-03  0.366265D-04  0.175284D-04  0.416121D-01  0.490741D-01
     62  0.555047D-04  0.312010D-04  0.143554D-04 -0.490741D-01 -0.527411D-01
     63  0.792506D-04  0.488284D-05 -0.833908D-05 -0.287429D-01 -0.393103D-01
     64 -0.223444D-03 -0.461779D-04 -0.212463D-04  0.000000D+00  0.000000D+00
     65  0.912648D-04  0.508953D-05  0.128693D-05  0.862706D-01  0.551960D-01
     66  0.602148D-04  0.535068D-05  0.126212D-05 -0.551960D-01 -0.801020D-02
     67  0.263377D-04  0.000000D+00  0.000000D+00 -0.980127D-01 -0.747485D-01
     68 -0.121069D-03 -0.578689D-05 -0.136501D-05  0.000000D+00  0.000000D+00
     69  0.131235D-04  0.000000D+00  0.000000D+00  0.398147D+00  0.000000D+00
     70  0.115178D-04  0.000000D+00  0.000000D+00  0.000000D+00  0.237410D+00
     71  0.558336D-05  0.000000D+00  0.000000D+00 -0.407575D+00  0.000000D+00
     72 -0.156677D-04  0.000000D+00  0.000000D+00  0.000000D+00  0.000000D+00
     73  0.479671D-05  0.149528D-04  0.159942D-03  0.333994D-02  0.419336D-02
     74  0.000000D+00  0.000000D+00  0.000000D+00  0.520724D+00 -0.425568D+00
     75  0.161397D-05  0.000000D+00  0.675186D-05  0.121262D+00  0.818767D-01
     76  0.179276D-04  0.376147D-04  0.166802D-03  0.632579D-02  0.913905D-02
     77  0.000000D+00  0.202659D-04  0.978211D-04 -0.913905D-02 -0.130801D-01
     78  0.169386D-04  0.251536D-04  0.719773D-05  0.172452D-02  0.278265D-02
     79 -0.217559D-04 -0.474924D-04 -0.229242D-03  0.000000D+00  0.000000D+00
     80  0.353495D-03  0.166803D-03  0.376157D-04  0.207463D-02  0.271691D-02
     81  0.000000D+00  0.978216D-04  0.202662D-04 -0.271691D-02 -0.344846D-02
     82  0.110745D-03 -0.719780D-05 -0.251543D-04 -0.155926D-02 -0.225274D-02
     83 -0.509081D-03 -0.229244D-03 -0.474938D-04  0.000000D+00  0.000000D+00
     84  0.158112D-03  0.675177D-05  0.000000D+00  0.126733D-01  0.593732D-02
     85  0.675208D-05  0.000000D+00  0.000000D+00  0.116094D+00 -0.615787D-01
[...]
    21  C    0.000000   0.000000   0.000000   0.000000   0.000000   0.000000
    22  C    0.000000   0.000000   0.000000   0.000000   0.000000   0.000000
    23  C    0.000000   0.000000   0.000000   0.000000   0.000000   0.000000
    24  C    0.000000   0.000000   0.000000   0.000000   0.000000   0.000000
    25  H    0.000000   0.000000   0.000000   0.000000   0.000000   0.000000
    26  H    0.000000   0.000000   0.000000   0.000000   0.000000   0.000000
    27  H    0.000000   0.000000   0.000000   0.000000   0.000000   0.000000
    28  C    0.000000   0.000000   0.000000   0.000000   0.000000   0.000000
    29  C    0.000000   0.000000   0.000000   0.000000   0.000000   0.000000
    30  H    0.000000   0.000000   0.000000   0.000000   0.000000   0.000000
    31  H    0.000000   0.000000   0.000000   0.000000   0.000000   0.000000
    32  C    0.000000   0.000000   0.000000   0.000000   0.000000   0.000000
    33  C    0.000000   0.000000   0.000000   0.000000   0.000000   0.000000
    34  H    0.000000   0.000000   0.000000   0.000000   0.000000   0.000000
    35  H    0.000000   0.000000   0.000000   0.000000   0.000000   0.000000
    36  H    0.000000   0.000000   0.000000   0.000000   0.000000   0.000000
              7          8          9         10         11         12
     1  C    0.000000   0.000000   0.000000   0.000000   0.000000   0.000000
     2  C    0.000000   0.000000   0.000000   0.000000   0.000000   0.000000
     3  C    0.000000   0.000000   0.000000   0.000000   0.000000   0.000000
     4  C    0.000000   0.000000   0.000000   0.000000   0.000000   0.000000
     5  C    0.000000   0.000000   0.000000   0.000000   0.000000   0.000000
     6  C    0.000000   0.000000   0.000000   0.000000   0.000000   0.000000
     7  H    0.968120   0.000000   0.000000   0.000000   0.000000   0.000000
     8  H    0.000000   0.967581   0.000000   0.000000   0.000000   0.000000
     9  H    0.000000   0.000000   0.968121   0.000000   0.000000   0.000000
    10  C    0.000000   0.000000   0.000000   4.037233   0.000000   0.000000
    11  C    0.000000   0.000000   0.000000   0.000000   4.037233   0.000000
    12  H    0.000000   0.000000   0.000000   0.000000   0.000000   0.968124
    13  H    0.000000   0.000000   0.000000   0.000000   0.000000   0.000000
    14  C    0.000000   0.000000   0.000000   0.000000   0.000000   0.000000
    15  C    0.000000   0.000000   0.000000   0.000000   0.000000   0.000000
    16  H    0.000000   0.000000   0.000000   0.000000   0.000000   0.000000
    17  H    0.000000   0.000000   0.000000   0.000000   0.000000   0.000000
    18  H    0.000000   0.000000   0.000000   0.000000   0.000000   0.000000
    19  C    0.000000   0.000000   0.000000   0.000000   0.000000   0.000000
    20  C    0.000000   0.000000   0.000000   0.000000   0.000000   0.000000
    21  C    0.000000   0.000000   0.000000   0.000000   0.000000   0.000000
    22  C    0.000000   0.000000   0.000000   0.000000   0.000000   0.000000
    23  C    0.000000   0.000000   0.000000   0.000000   0.000000   0.000000
    24  C    0.000000   0.000000   0.000000   0.000000   0.000000   0.000000
    25  H    0.000000   0.000000   0.000000   0.000000   0.000000   0.000000
    26  H    0.000000   0.000000   0.000000   0.000000   0.000000   0.000000
    27  H    0.000000   0.000000   0.000000   0.000000   0.000000   0.000000
    28  C    0.000000   0.000000   0.000000   0.000000   0.000000   0.000000
    29  C    0.000000   0.000000   0.000000   0.000000   0.000000   0.000000
    30  H    0.000000   0.000000   0.000000   0.000000   0.000000   0.000000
    31  H    0.000000   0.000000   0.000000   0.000000   0.000000   0.000000
    32  C    0.000000   0.000000   0.000000   0.000000   0.000000   0.000000
    33  C    0.000000   0.000000   0.000000   0.000000   0.000000   0.000000
    34  H    0.000000   0.000000   0.000000   0.000000   0.000000   0.000000
    35  H    0.000000   0.000000   0.000000   0.000000   0.000000   0.000000
    36  H    0.000000   0.000000   0.000000   0.000000   0.000000   0.000000
             13         14         15         16         17         18
     1  C    0.000000   0.000000   0.000000   0.000000   0.000000   0.000000
     2  C    0.000000   0.000000   0.000000   0.000000   0.000000   0.000000
     3  C    0.000000   0.000000   0.000000   0.000000   0.000000   0.000000
     4  C    0.000000   0.000000   0.000000   0.000000   0.000000   0.000000
     5  C    0.000000   0.000000   0.000000   0.000000   0.000000   0.000000
     6  C    0.000000   0.000000   0.000000   0.000000   0.000000   0.000000
     7  H    0.000000   0.000000   0.000000   0.000000   0.000000   0.000000
     8  H    0.000000   0.000000   0.000000   0.000000   0.000000   0.000000
     9  H    0.000000   0.000000   0.000000   0.000000   0.000000   0.000000
    10  C    0.000000   0.000000   0.000000   0.000000   0.000000   0.000000
    11  C    0.000000   0.000000   0.000000   0.000000   0.000000   0.000000
    12  H    0.000000   0.000000   0.000000   0.000000   0.000000   0.000000
    13  H    0.967578   0.000000   0.000000   0.000000   0.000000   0.000000
    14  C    0.000000   4.034693   0.000000   0.000000   0.000000   0.000000
    15  C    0.000000   0.000000   4.034695   0.000000   0.000000   0.000000
    16  H    0.000000   0.000000   0.000000   0.968121   0.000000   0.000000
    17  H    0.000000   0.000000   0.000000   0.000000   0.967581   0.000000
    18  H    0.000000   0.000000   0.000000   0.000000   0.000000   0.967582
    19  C    0.000000   0.000000   0.000000   0.000000   0.000000   0.000000
    20  C    0.000000   0.000000   0.000000   0.000000   0.000000   0.000000
    21  C    0.000000   0.000000   0.000000   0.000000   0.000000   0.000000
    22  C    0.000000   0.000000   0.000000   0.000000   0.000000   0.000000
    23  C    0.000000   0.000000   0.000000   0.000000   0.000000   0.000000
    24  C    0.000000   0.000000   0.000000   0.000000   0.000000   0.000000
    25  H    0.000000   0.000000   0.000000   0.000000   0.000000   0.000000
    26  H    0.000000   0.000000   0.000000   0.000000   0.000000   0.000000
    27  H    0.000000   0.000000   0.000000   0.000000   0.000000   0.000000
    28  C    0.000000   0.000000   0.000000   0.000000   0.000000   0.000000
    29  C    0.000000   0.000000   0.000000   0.000000   0.000000   0.000000
    30  H    0.000000   0.000000   0.000000   0.000000   0.000000   0.000000
    31  H    0.000000   0.000000   0.000000   0.000000   0.000000   0.000000
    32  C    0.000000   0.000000   0.000000   0.000000   0.000000   0.000000
    33  C    0.000000   0.000000   0.000000   0.000000   0.000000   0.000000
    34  H    0.000000   0.000000   0.000000   0.000000   0.000000   0.000000
    35  H    0.000000   0.000000   0.000000   0.000000   0.000000   0.000000
    36  H    0.000000   0.000000   0.000000   0.000000   0.000000   0.000000
             19         20         21         22         23         24
     1  C    0.000000   0.000000   0.000000   0.000000   0.000000   0.000000
     2  C    0.000000   0.000000   0.000000   0.000000   0.000000   0.000000
     3  C    0.000000   0.000000   0.000000   0.000000   0.000000   0.000000
     4  C    0.000000   0.000000   0.000000   0.000000   0.000000   0.000000
     5  C    0.000000   0.000000   0.000000   0.000000   0.000000   0.000000
     6  C    0.000000   0.000000   0.000000   0.000000   0.000000   0.000000
     7  H    0.000000   0.000000   0.000000   0.000000   0.000000   0.000000
     8  H    0.000000   0.000000   0.000000   0.000000   0.000000   0.000000
     9  H    0.000000   0.000000   0.000000   0.000000   0.000000   0.000000
    10  C    0.000000   0.000000   0.000000   0.000000   0.000000   0.000000
    11  C    0.000000   0.000000   0.000000   0.000000   0.000000   0.000000
    12  H    0.000000   0.000000   0.000000   0.000000   0.000000   0.000000
    13  H    0.000000   0.000000   0.000000   0.000000   0.000000   0.000000
    14  C    0.000000   0.000000   0.000000   0.000000   0.000000   0.000000
    15  C    0.000000   0.000000   0.000000   0.000000   0.000000   0.000000
    16  H    0.000000   0.000000   0.000000   0.000000   0.000000   0.000000
    17  H    0.000000   0.000000   0.000000   0.000000   0.000000   0.000000
    18  H    0.000000   0.000000   0.000000   0.000000   0.000000   0.000000
    19  C    4.034693   0.000000   0.000000   0.000000   0.000000   0.000000
    20  C    0.000000   4.037234   0.000000   0.000000   0.000000   0.000000
    21  C    0.000000   0.000000   3.984741   0.000000   0.000000   0.000000
    22  C    0.000000   0.000000   0.000000   3.984741   0.000000   0.000000
    23  C    0.000000   0.000000   0.000000   0.000000   4.037232   0.000000
    24  C    0.000000   0.000000   0.000000   0.000000   0.000000   4.034697
    25  H    0.000000   0.000000   0.000000   0.000000   0.000000   0.000000
    26  H    0.000000   0.000000   0.000000   0.000000   0.000000   0.000000
    27  H    0.000000   0.000000   0.000000   0.000000   0.000000   0.000000
    28  C    0.000000   0.000000   0.000000   0.000000   0.000000   0.000000
    29  C    0.000000   0.000000   0.000000   0.000000   0.000000   0.000000
    30  H    0.000000   0.000000   0.000000   0.000000   0.000000   0.000000
    31  H    0.000000   0.000000   0.000000   0.000000   0.000000   0.000000
    32  C    0.000000   0.000000   0.000000   0.000000   0.000000   0.000000
    33  C    0.000000   0.000000   0.000000   0.000000   0.000000   0.000000
    34  H    0.000000   0.000000   0.000000   0.000000   0.000000   0.000000
    35  H    0.000000   0.000000   0.000000   0.000000   0.000000   0.000000
    36  H    0.000000   0.000000   0.000000   0.000000   0.000000   0.000000
             25         26         27         28         29         30
     1  C    0.000000   0.000000   0.000000   0.000000   0.000000   0.000000
     2  C    0.000000   0.000000   0.000000   0.000000   0.000000   0.000000
     3  C    0.000000   0.000000   0.000000   0.000000   0.000000   0.000000
     4  C    0.000000   0.000000   0.000000   0.000000   0.000000   0.000000
     5  C    0.000000   0.000000   0.000000   0.000000   0.000000   0.000000
     6  C    0.000000   0.000000   0.000000   0.000000   0.000000   0.000000
     7  H    0.000000   0.000000   0.000000   0.000000   0.000000   0.000000
     8  H    0.000000   0.000000   0.000000   0.000000   0.000000   0.000000
     9  H    0.000000   0.000000   0.000000   0.000000   0.000000   0.000000
    10  C    0.000000   0.000000   0.000000   0.000000   0.000000   0.000000
    11  C    0.000000   0.000000   0.000000   0.000000   0.000000   0.000000
    12  H    0.000000   0.000000   0.000000   0.000000   0.000000   0.000000
    13  H    0.000000   0.000000   0.000000   0.000000   0.000000   0.000000
    14  C    0.000000   0.000000   0.000000   0.000000   0.000000   0.000000
    15  C    0.000000   0.000000   0.000000   0.000000   0.000000   0.000000
    16  H    0.000000   0.000000   0.000000   0.000000   0.000000   0.000000
    17  H    0.000000   0.000000   0.000000   0.000000   0.000000   0.000000
    18  H    0.000000   0.000000   0.000000   0.000000   0.000000   0.000000
    19  C    0.000000   0.000000   0.000000   0.000000   0.000000   0.000000
    20  C    0.000000   0.000000   0.000000   0.000000   0.000000   0.000000
    21  C    0.000000   0.000000   0.000000   0.000000   0.000000   0.000000
    22  C    0.000000   0.000000   0.000000   0.000000   0.000000   0.000000
    23  C    0.000000   0.000000   0.000000   0.000000   0.000000   0.000000
    24  C    0.000000   0.000000   0.000000   0.000000   0.000000   0.000000
    25  H    0.968120   0.000000   0.000000   0.000000   0.000000   0.000000
    26  H    0.000000   0.967581   0.000000   0.000000   0.000000   0.000000
    27  H    0.000000   0.000000   0.968121   0.000000   0.000000   0.000000
    28  C    0.000000   0.000000   0.000000   4.037233   0.000000   0.000000
    29  C    0.000000   0.000000   0.000000   0.000000   4.037233   0.000000
    30  H    0.000000   0.000000   0.000000   0.000000   0.000000   0.968124
    31  H    0.000000   0.000000   0.000000   0.000000   0.000000   0.000000
    32  C    0.000000   0.000000   0.000000   0.000000   0.000000   0.000000
    33  C    0.000000   0.000000   0.000000   0.000000   0.000000   0.000000
    34  H    0.000000   0.000000   0.000000   0.000000   0.000000   0.000000
    35  H    0.000000   0.000000   0.000000   0.000000   0.000000   0.000000
    36  H    0.000000   0.000000   0.000000   0.000000   0.000000   0.000000
             31         32         33         34         35         36
     1  C    0.000000   0.000000   0.000000   0.000000   0.000000   0.000000
     2  C    0.000000   0.000000   0.000000   0.000000   0.000000   0.000000
     3  C    0.000000   0.000000   0.000000   0.000000   0.000000   0.000000
     4  C    0.000000   0.000000   0.000000   0.000000   0.000000   0.000000
     5  C    0.000000   0.000000   0.000000   0.000000   0.000000   0.000000
     6  C    0.000000   0.000000   0.000000   0.000000   0.000000   0.000000
     7  H    0.000000   0.000000   0.000000   0.000000   0.000000   0.000000
     8  H    0.000000   0.000000   0.000000   0.000000   0.000000   0.000000
     9  H    0.000000   0.000000   0.000000   0.000000   0.000000   0.000000
    10  C    0.000000   0.000000   0.000000   0.000000   0.000000   0.000000
    11  C    0.000000   0.000000   0.000000   0.000000   0.000000   0.000000
    12  H    0.000000   0.000000   0.000000   0.000000   0.000000   0.000000
    13  H    0.000000   0.000000   0.000000   0.000000   0.000000   0.000000
    14  C    0.000000   0.000000   0.000000   0.000000   0.000000   0.000000
    15  C    0.000000   0.000000   0.000000   0.000000   0.000000   0.000000
    16  H    0.000000   0.000000   0.000000   0.000000   0.000000   0.000000
    17  H    0.000000   0.000000   0.000000   0.000000   0.000000   0.000000
    18  H    0.000000   0.000000   0.000000   0.000000   0.000000   0.000000
    19  C    0.000000   0.000000   0.000000   0.000000   0.000000   0.000000
    20  C    0.000000   0.000000   0.000000   0.000000   0.000000   0.000000
    21  C    0.000000   0.000000   0.000000   0.000000   0.000000   0.000000
    22  C    0.000000   0.000000   0.000000   0.000000   0.000000   0.000000
    23  C    0.000000   0.000000   0.000000   0.000000   0.000000   0.000000
    24  C    0.000000   0.000000   0.000000   0.000000   0.000000   0.000000
    25  H    0.000000   0.000000   0.000000   0.000000   0.000000   0.000000
    26  H    0.000000   0.000000   0.000000   0.000000   0.000000   0.000000
    27  H    0.000000   0.000000   0.000000   0.000000   0.000000   0.000000
    28  C    0.000000   0.000000   0.000000   0.000000   0.000000   0.000000
    29  C    0.000000   0.000000   0.000000   0.000000   0.000000   0.000000
    30  H    0.000000   0.000000   0.000000   0.000000   0.000000   0.000000
    31  H    0.967578   0.000000   0.000000   0.000000   0.000000   0.000000
    32  C    0.000000   4.034693   0.000000   0.000000   0.000000   0.000000
    33  C    0.000000   0.000000   4.034695   0.000000   0.000000   0.000000
    34  H    0.000000   0.000000   0.000000   0.968121   0.000000   0.000000
    35  H    0.000000   0.000000   0.000000   0.000000   0.967581   0.000000
    36  H    0.000000   0.000000   0.000000   0.000000   0.000000   0.967582
 Mulliken atomic charges:
              1
     1  C   -0.034693
     2  C   -0.037234
     3  C    0.015259
     4  C    0.015259
     5  C   -0.037232
     6  C   -0.034697
     7  H    0.031880
     8  H    0.032419
     9  H    0.031879
    10  C   -0.037233
    11  C   -0.037233
    12  H    0.031876
    13  H    0.032422
    14  C   -0.034693
    15  C   -0.034695
    16  H    0.031879
    17  H    0.032419
    18  H    0.032418
    19  C   -0.034693
    20  C   -0.037234
    21  C    0.015259
    22  C    0.015259
    23  C   -0.037232
    24  C   -0.034697
    25  H    0.031880
    26  H    0.032419
    27  H    0.031879
    28  C   -0.037233
    29  C   -0.037233
    30  H    0.031876
    31  H    0.032422
    32  C   -0.034693
    33  C   -0.034695
    34  H    0.031879
    35  H    0.032419
    36  H    0.032418
 Sum of Mulliken charges=   0.00000
 Atomic charges with hydrogens summed into heavy atoms:
              1
     1  C   -0.002274
     2  C   -0.005356
     3  C    0.015259
     4  C    0.015259
     5  C   -0.005355
     6  C   -0.002275
     7  H    0.000000
     8  H    0.000000
     9  H    0.000000
    10  C   -0.005353
    11  C   -0.005354
    12  H    0.000000
    13  H    0.000000
    14  C   -0.002274
    15  C   -0.002277
    16  H    0.000000
    17  H    0.000000
    18  H    0.000000
    19  C   -0.002274
    20  C   -0.005356
    21  C    0.015259
    22  C    0.015259
    23  C   -0.005355
    24  C   -0.002275
    25  H    0.000000
    26  H    0.000000
    27  H    0.000000
    28  C   -0.005353
    29  C   -0.005354
    30  H    0.000000
    31  H    0.000000
    32  C   -0.002274
    33  C   -0.002277
    34  H    0.000000
    35  H    0.000000
    36  H    0.000000
 Sum of Mulliken charges=   0.00000
 Electronic spatial extent (au):  <R**2>= 10331.9748
 Charge=   -61.4285 electrons
 Dipole moment (field-independent basis, Debye):
    X=     0.0009    Y=     0.0003    Z=  -737.6341  Tot=   737.6341
 Quadrupole moment (field-independent basis, Debye-Ang):
   XX= -1240.1535   YY=  -646.1843   ZZ= -3883.4712
   XY=    -0.0017   XZ=     0.0022   YZ=     0.0008
 Traceless Quadrupole moment (field-independent basis, Debye-Ang):
   XX=   683.1162   YY=  1277.0854   ZZ= -1960.2016
   XY=    -0.0017   XZ=     0.0022   YZ=     0.0008
 Octapole moment (field-independent basis, Debye-Ang**2):
  XXX=     0.0094  YYY=     0.0027  ZZZ=-19905.6075  XYY=     0.0002
  XXY=    -0.0004  XXZ= -3100.3837  XZZ=     0.0112  YZZ=     0.0043
  YYZ= -1615.4607  XYZ=    -0.0042
 Hexadecapole moment (field-independent basis, Debye-Ang**3):
 XXXX=-10918.3021 YYYY= -3170.8798 ZZZZ=*********** XXXY=    -0.0170
 XXXZ=     0.0236 YYYX=    -0.0090 YYYZ=     0.0068 ZZZX=     0.0565
 ZZZY=     0.0219 XXYY= -2231.2134 XXZZ=-16227.8106 YYZZ= -8416.1724
 XXYZ=    -0.0011 YYXZ=     0.0005 ZZXY=    -0.0223
 N-N= 5.195062544150D+02 E-N= 0.000000000000D+00  KE=-1.213092222682D+03

 Test job not archived.
 1\1\GINC-RHUBARB\SP\RZINDO\STO-3G\C20H16\JK905\10-Oct-2007\0\\# ZINDO 
 PUNCH=MO IOP(3/33=1) NOSYMM\\04/10/07: Geometry from napthalene_b3lyp_
 of.log and reorientated to put long axi geometric centre on origin.\\0
 ,1\C,0,-2.4336,-0.70848,0.\C,0,-1.24478,-1.40258,0.\C,0,-0.0000018091,
 -0.716892,0.\C,0,0.0000023856,0.716891,0.\C,0,-1.24476,1.40257,0.\C,0,
 -2.4336,0.708481,0.\H,0,1.24204,-2.49027,0.\H,0,-3.37834,-1.24559,0.\H
 ,0,-1.24204,-2.49028,0.\C,0,1.24476,-1.40258,0.\C,0,1.24478,1.40258,0.
 \H,0,-1.24204,2.49027,0.\H,0,-3.37833,1.24559,0.\C,0,2.4336,0.708481,0
 .\C,0,2.43359,-0.70848,0.\H,0,1.24203,2.49028,0.\H,0,3.37835,1.24559,0
 .\H,0,3.37834,-1.24559,0.\C,0,-2.4336,-0.70848,5.\C,0,-1.24478,-1.4025
 8,5.\C,0,-0.0000018091,-0.716892,5.\C,0,0.0000023856,0.716891,5.\C,0,-
 1.24476,1.40257,5.\C,0,-2.4336,0.708481,5.\H,0,1.24204,-2.49027,5.\H,0
 ,-3.37834,-1.24559,5.\H,0,-1.24204,-2.49028,5.\C,0,1.24476,-1.40258,5.
 \C,0,1.24478,1.40258,5.\H,0,-1.24204,2.49027,5.\H,0,-3.37833,1.24559,5
 .\C,0,2.4336,0.708481,5.\C,0,2.43359,-0.70848,5.\H,0,1.24203,2.49028,5
 .\H,0,3.37835,1.24559,5.\H,0,3.37834,-1.24559,5.\\Version=x86_64-Linux
 -G03RevB.05\HF=-123.3542919\RMSD=1.318e-09\PG=CS [X(C20H16)]\\@


 AND ALL THIS SCIENCE I DON'T UNDERSTAND
 IT'S JUST MY JOB FIVE DAYS A WEEK

                           -- ELTON JOHN, "ROCKET MAN"
 Job cpu time:  0 days  0 hours  0 minutes  4.0 seconds.
 File lengths (MBytes):  RWF=     36 Int=      0 D2E=      0 Chk=     11 Scr=      1
 Normal termination of Gaussian 03 at Wed Oct 10 10:15:08 2007.
