 Entering Gaussian System, Link 0=g03
 Input=7_pair.com
 Output=7_pair.log
 Initial command:
 /usr/local/g03/l1.exe /export/home/joe2/code/svnJ/J_from_g03/examples/naphthalene_zindo/Gau-12586.inp -scrdir=/export/home/joe2/code/svnJ/J_from_g03/examples/naphthalene_zindo/
 Entering Link 1 = /usr/local/g03/l1.exe PID=     12587.
  
 Copyright (c) 1988,1990,1992,1993,1995,1998,2003, Gaussian, Inc.
                  All Rights Reserved.
  
 This is the Gaussian(R) 03 program.  It is based on the
 the Gaussian(R) 98 system (copyright 1998, Gaussian, Inc.),
 the Gaussian(R) 94 system (copyright 1995, Gaussian, Inc.),
 the Gaussian 92(TM) system (copyright 1992, Gaussian, Inc.),
 the Gaussian 90(TM) system (copyright 1990, Gaussian, Inc.),
 the Gaussian 88(TM) system (copyright 1988, Gaussian, Inc.),
 the Gaussian 86(TM) system (copyright 1986, Carnegie Mellon
 University), and the Gaussian 82(TM) system (copyright 1983,
 Carnegie Mellon University). Gaussian is a federally registered
 trademark of Gaussian, Inc.
  
 This software contains proprietary and confidential information,
 including trade secrets, belonging to Gaussian, Inc.
  
 This software is provided under written license and may be
 used, copied, transmitted, or stored only in accord with that
 written license.
  
 The following legend is applicable only to US Government
 contracts under DFARS:
  
                    RESTRICTED RIGHTS LEGEND
  
 Use, duplication or disclosure by the US Government is subject
 to restrictions as set forth in subparagraph (c)(1)(ii) of the
 Rights in Technical Data and Computer Software clause at DFARS
 252.227-7013.
  
 Gaussian, Inc.
 Carnegie Office Park, Building 6, Pittsburgh, PA 15106 USA
  
 The following legend is applicable only to US Government
 contracts under FAR:
  
                    RESTRICTED RIGHTS LEGEND
  
 Use, reproduction and disclosure by the US Government is subject
 to restrictions as set forth in subparagraph (c) of the
 Commercial Computer Software - Restricted Rights clause at FAR
 52.227-19.
  
 Gaussian, Inc.
 Carnegie Office Park, Building 6, Pittsburgh, PA 15106 USA
  
  
 ---------------------------------------------------------------
 Warning -- This program may not be used in any manner that
 competes with the business of Gaussian, Inc. or will provide
 assistance to any competitor of Gaussian, Inc.  The licensee
 of this program is prohibited from giving any competitor of
 Gaussian, Inc. access to this program.  By using this program,
 the user acknowledges that Gaussian, Inc. is engaged in the
 business of creating and licensing software in the field of
 computational chemistry and represents and warrants to the
 licensee that it is not a competitor of Gaussian, Inc. and that
 it will not use this program in any manner prohibited above.
 ---------------------------------------------------------------
  

 Cite this work as:
 Gaussian 03, Revision B.05,
 M. J. Frisch, G. W. Trucks, H. B. Schlegel, G. E. Scuseria, 
 M. A. Robb, J. R. Cheeseman, J. A. Montgomery, Jr., T. Vreven, 
 K. N. Kudin, J. C. Burant, J. M. Millam, S. S. Iyengar, J. Tomasi, 
 V. Barone, B. Mennucci, M. Cossi, G. Scalmani, N. Rega, 
 G. A. Petersson, H. Nakatsuji, M. Hada, M. Ehara, K. Toyota, 
 R. Fukuda, J. Hasegawa, M. Ishida, T. Nakajima, Y. Honda, O. Kitao, 
 H. Nakai, M. Klene, X. Li, J. E. Knox, H. P. Hratchian, J. B. Cross, 
 C. Adamo, J. Jaramillo, R. Gomperts, R. E. Stratmann, O. Yazyev, 
 A. J. Austin, R. Cammi, C. Pomelli, J. W. Ochterski, P. Y. Ayala, 
 K. Morokuma, G. A. Voth, P. Salvador, J. J. Dannenberg, 
 V. G. Zakrzewski, S. Dapprich, A. D. Daniels, M. C. Strain, 
 O. Farkas, D. K. Malick, A. D. Rabuck, K. Raghavachari, 
 J. B. Foresman, J. V. Ortiz, Q. Cui, A. G. Baboul, S. Clifford, 
 J. Cioslowski, B. B. Stefanov, G. Liu, A. Liashenko, P. Piskorz, 
 I. Komaromi, R. L. Martin, D. J. Fox, T. Keith, M. A. Al-Laham, 
 C. Y. Peng, A. Nanayakkara, M. Challacombe, P. M. W. Gill, 
 B. Johnson, W. Chen, M. W. Wong, C. Gonzalez, and J. A. Pople, 
 Gaussian, Inc., Pittsburgh PA, 2003.
 
 *************************************************
 Gaussian 03:  x86_64-Linux-G03RevB.05  8-Nov-2003
                    10-Oct-2007 
 *************************************************
 -----------------------------------
 # zindo punch=mo iop(3/33=1) nosymm
 -----------------------------------
 1/30=1,38=1/1;
 2/15=1,17=6,18=5,40=1/2;
 3/5=2,12=3,16=1,25=1,33=1,41=400000/1,2,8,3;
 4/5=3,11=1,35=1/1;
 5/5=2,35=1,38=5/2;
 8/6=1/1;
 9/42=1,49=10/14;
 6/7=2,8=2,9=2,10=2/1;
 99/5=1,9=1,10=32/99;
 ----------------------------------------------------------------------
 04/10/07: Geometry from napthalene_b3lyp_of.log and reorientated to pu
 t long axi geometric centre on origin.
 ----------------------------------------------------------------------
 Symbolic Z-matrix:
 Charge =  0 Multiplicity = 1
 C                    -2.4336   -0.70848   0. 
 C                    -1.24478  -1.40258   0. 
 C                    0.        -0.71689   0. 
 C                     0.        0.71689   0. 
 C                    -1.24476   1.40257   0. 
 C                    -2.4336    0.70848   0. 
 H                     1.24204  -2.49027   0. 
 H                    -3.37834  -1.24559   0. 
 H                    -1.24204  -2.49028   0. 
 C                     1.24476  -1.40258   0. 
 C                     1.24478   1.40258   0. 
 H                    -1.24204   2.49027   0. 
 H                    -3.37833   1.24559   0. 
 C                     2.4336    0.70848   0. 
 C                     2.43359  -0.70848   0. 
 H                     1.24203   2.49028   0. 
 H                     3.37835   1.24559   0. 
 H                     3.37834  -1.24559   0. 
 C                    -2.4336   -0.70848   7. 
 C                    -1.24478  -1.40258   7. 
 C                    0.        -0.71689   7. 
 C                     0.        0.71689   7. 
 C                    -1.24476   1.40257   7. 
 C                    -2.4336    0.70848   7. 
 H                     1.24204  -2.49027   7. 
 H                    -3.37834  -1.24559   7. 
 H                    -1.24204  -2.49028   7. 
 C                     1.24476  -1.40258   7. 
 C                     1.24478   1.40258   7. 
 H                    -1.24204   2.49027   7. 
 H                    -3.37833   1.24559   7. 
 C                     2.4336    0.70848   7. 
 C                     2.43359  -0.70848   7. 
 H                     1.24203   2.49028   7. 
 H                     3.37835   1.24559   7. 
 H                     3.37834  -1.24559   7. 
 
                          Input orientation:                          
 ---------------------------------------------------------------------
 Center     Atomic     Atomic              Coordinates (Angstroms)
 Number     Number      Type              X           Y           Z
 ---------------------------------------------------------------------
    1          6             0       -2.433600   -0.708480    0.000000
    2          6             0       -1.244780   -1.402580    0.000000
    3          6             0       -0.000002   -0.716892    0.000000
    4          6             0        0.000002    0.716891    0.000000
    5          6             0       -1.244760    1.402570    0.000000
    6          6             0       -2.433600    0.708481    0.000000
    7          1             0        1.242040   -2.490270    0.000000
    8          1             0       -3.378340   -1.245590    0.000000
    9          1             0       -1.242040   -2.490280    0.000000
   10          6             0        1.244760   -1.402580    0.000000
   11          6             0        1.244780    1.402580    0.000000
   12          1             0       -1.242040    2.490270    0.000000
   13          1             0       -3.378330    1.245590    0.000000
   14          6             0        2.433600    0.708481    0.000000
   15          6             0        2.433590   -0.708480    0.000000
   16          1             0        1.242030    2.490280    0.000000
   17          1             0        3.378350    1.245590    0.000000
   18          1             0        3.378340   -1.245590    0.000000
   19          6             0       -2.433600   -0.708480    7.000000
   20          6             0       -1.244780   -1.402580    7.000000
   21          6             0       -0.000002   -0.716892    7.000000
   22          6             0        0.000002    0.716891    7.000000
   23          6             0       -1.244760    1.402570    7.000000
   24          6             0       -2.433600    0.708481    7.000000
   25          1             0        1.242040   -2.490270    7.000000
   26          1             0       -3.378340   -1.245590    7.000000
   27          1             0       -1.242040   -2.490280    7.000000
   28          6             0        1.244760   -1.402580    7.000000
   29          6             0        1.244780    1.402580    7.000000
   30          1             0       -1.242040    2.490270    7.000000
   31          1             0       -3.378330    1.245590    7.000000
   32          6             0        2.433600    0.708481    7.000000
   33          6             0        2.433590   -0.708480    7.000000
   34          1             0        1.242030    2.490280    7.000000
   35          1             0        3.378350    1.245590    7.000000
   36          1             0        3.378340   -1.245590    7.000000
 ---------------------------------------------------------------------
                    Distance matrix (angstroms):
                    1          2          3          4          5
     1  C    0.000000
     2  C    1.376615   0.000000
     3  C    2.433613   1.421141   0.000000
     4  C    2.820302   2.457975   1.433783   0.000000
     5  C    2.422782   2.805150   2.457955   1.421122   0.000000
     6  C    1.416961   2.422782   2.820299   2.433617   1.376626
     7  H    4.084741   2.714285   2.165072   3.439264   4.619348
     8  H    1.086748   2.139328   3.419458   3.906985   3.400723
     9  H    2.143508   1.087703   2.165078   3.439275   3.892851
    10  C    3.743275   2.489540   1.421126   2.457962   3.750543
    11  C    4.241115   3.750578   2.457975   1.421141   2.489540
    12  H    3.413476   3.892851   3.439265   2.165073   1.087703
    13  H    2.170462   3.400712   3.906973   3.419452   2.139337
    14  C    5.069262   4.241115   2.820302   2.433612   3.743273
    15  C    4.867190   3.743285   2.433606   2.820289   4.241084
    16  H    4.872609   4.619370   3.439272   2.165073   2.714266
    17  H    6.131652   5.327864   3.906993   3.419467   4.625774
    18  H    5.836706   4.625785   3.419461   3.906981   5.327833
    19  C    7.000000   7.134078   7.410970   7.546794   7.407420
    20  C    7.134078   7.000000   7.142803   7.419005   7.541145
    21  C    7.410970   7.142803   7.000000   7.145330   7.418999
    22  C    7.546794   7.419005   7.145330   7.000000   7.142800
    23  C    7.407420   7.541145   7.418999   7.142800   7.000000
    24  C    7.141973   7.407420   7.546793   7.410971   7.134080
    25  H    8.104635   7.507819   7.327178   7.799265   8.386798
    26  H    7.083856   7.319612   7.790551   8.016516   7.782346
    27  H    7.320835   7.084003   7.327180   7.799270   8.009637
    28  C    7.938017   7.429523   7.142801   7.419001   7.941447
    29  C    8.184562   7.941463   7.419006   7.142803   7.429523
    30  H    7.787928   8.009637   7.799266   7.327178   7.084003
    31  H    7.328772   7.782342   8.016510   7.790549   7.319615
    32  C    8.642767   8.184562   7.546794   7.410969   7.938016
    33  C    8.525816   7.938021   7.410968   7.546789   8.184546
    34  H    8.528911   8.386810   7.799269   7.327178   7.507812
    35  H    9.305759   8.796939   8.016520   7.790556   8.390339
    36  H    9.114117   8.390345   7.790553   8.016514   8.796920
                    6          7          8          9         10
     6  C    0.000000
     7  H    4.872611   0.000000
     8  H    2.170467   4.785096   0.000000
     9  H    3.413486   2.484080   2.472454   0.000000
    10  C    4.241098   1.087693   4.625765   2.714271   0.000000
    11  C    3.743294   3.892851   5.327855   4.619376   2.805160
    12  H    2.143499   5.565648   4.303537   4.980550   4.619357
    13  H    1.086739   5.941756   2.491180   4.303540   5.327829
    14  C    4.867200   3.413477   6.131643   4.872618   2.422792
    15  C    5.069252   2.143494   5.836696   4.084736   1.376623
    16  H    4.084735   4.980550   5.941763   5.565661   3.892861
    17  H    5.836716   4.303542   7.201308   5.941778   3.400737
    18  H    6.131643   2.472449   6.756680   4.785098   2.139348
    19  C    7.141973   8.104635   7.083856   7.320835   7.938017
    20  C    7.407420   7.507819   7.319612   7.084003   7.429523
    21  C    7.546793   7.327178   7.790551   7.327180   7.142801
    22  C    7.410971   7.799265   8.016516   7.799270   7.419001
    23  C    7.134080   8.386798   7.782346   8.009637   7.941447
    24  C    7.000000   8.528912   7.328774   7.787932   8.184553
    25  H    8.528912   7.000000   8.479218   7.427695   7.084001
    26  H    7.328774   8.479218   7.000000   7.423815   8.390334
    27  H    7.787932   7.427695   7.423815   7.000000   7.507814
    28  C    8.184553   7.084001   8.390334   7.507814   7.000000
    29  C    7.938026   8.009637   8.796934   8.386813   7.541149
    30  H    7.320832   8.942954   8.217081   8.591035   8.386802
    31  H    7.083855   9.181747   7.430073   8.217083   8.796918
    32  C    8.525822   7.787928   9.305753   8.528916   7.407423
    33  C    8.642761   7.320831   9.114111   8.104632   7.134080
    34  H    8.104632   8.591035   9.181751   8.942963   8.009642
    35  H    9.114124   8.217084  10.042850   9.181761   7.782353
    36  H    9.305753   7.423813   9.728963   8.479220   7.319618
                   11         12         13         14         15
    11  C    0.000000
    12  H    2.714285   0.000000
    13  H    4.625775   2.472441   0.000000
    14  C    1.376614   4.084740   5.836696   0.000000
    15  C    2.422776   4.872603   6.131623   1.416961   0.000000
    16  H    1.087703   2.484070   4.785079   2.143513   3.413485
    17  H    2.139338   4.785105   6.756680   1.086756   2.170475
    18  H    3.400718   5.941764   7.201289   2.170467   1.086757
    19  C    8.184562   7.787928   7.328772   8.642767   8.525816
    20  C    7.941463   8.009637   7.782342   8.184562   7.938021
    21  C    7.419006   7.799266   8.016510   7.546794   7.410968
    22  C    7.142803   7.327178   7.790549   7.410969   7.546789
    23  C    7.429523   7.084003   7.319615   7.938016   8.184546
    24  C    7.938026   7.320832   7.083855   8.525822   8.642761
    25  H    8.009637   8.942954   9.181747   7.787928   7.320831
    26  H    8.796934   8.217081   7.430073   9.305753   9.114111
    27  H    8.386813   8.591035   8.217083   8.528916   8.104632
    28  C    7.541149   8.386802   8.796918   7.407423   7.134080
    29  C    7.000000   7.507819   8.390339   7.134078   7.407418
    30  H    7.507819   7.000000   7.423811   8.104635   8.528907
    31  H    8.390339   7.423811   7.000000   9.114111   9.305740
    32  C    7.134078   8.104635   9.114111   7.000000   7.141973
    33  C    7.407418   8.528907   9.305740   7.141973   7.000000
    34  H    7.084003   7.427692   8.479209   7.320836   7.787932
    35  H    7.319615   8.479224   9.728963   7.083858   7.328776
    36  H    7.782344   9.181752  10.042837   7.328774   7.083858
                   16         17         18         19         20
    16  H    0.000000
    17  H    2.472472   0.000000
    18  H    4.303550   2.491180   0.000000
    19  C    8.528911   9.305759   9.114117   0.000000
    20  C    8.386810   8.796939   8.390345   1.376615   0.000000
    21  C    7.799269   8.016520   7.790553   2.433613   1.421141
    22  C    7.327178   7.790556   8.016514   2.820302   2.457975
    23  C    7.507812   8.390339   8.796920   2.422782   2.805150
    24  C    8.104632   9.114124   9.305753   1.416961   2.422782
    25  H    8.591035   8.217084   7.423813   4.084741   2.714285
    26  H    9.181751  10.042850   9.728963   1.086748   2.139328
    27  H    8.942963   9.181761   8.479220   2.143508   1.087703
    28  C    8.009642   7.782353   7.319618   3.743275   2.489540
    29  C    7.084003   7.319615   7.782344   4.241115   3.750578
    30  H    7.427692   8.479224   9.181752   3.413476   3.892851
    31  H    8.479209   9.728963  10.042837   2.170462   3.400712
    32  C    7.320836   7.083858   7.328774   5.069262   4.241115
    33  C    7.787932   7.328776   7.083858   4.867190   3.743285
    34  H    7.000000   7.423821   8.217089   4.872609   4.619370
    35  H    7.423821   7.000000   7.430073   6.131652   5.327864
    36  H    8.217089   7.430073   7.000000   5.836706   4.625785
                   21         22         23         24         25
    21  C    0.000000
    22  C    1.433783   0.000000
    23  C    2.457955   1.421122   0.000000
    24  C    2.820299   2.433617   1.376626   0.000000
    25  H    2.165072   3.439264   4.619348   4.872611   0.000000
    26  H    3.419458   3.906985   3.400723   2.170467   4.785096
    27  H    2.165078   3.439275   3.892851   3.413486   2.484080
    28  C    1.421126   2.457962   3.750543   4.241098   1.087693
    29  C    2.457975   1.421141   2.489540   3.743294   3.892851
    30  H    3.439265   2.165073   1.087703   2.143499   5.565648
    31  H    3.906973   3.419452   2.139337   1.086739   5.941756
    32  C    2.820302   2.433612   3.743273   4.867200   3.413477
    33  C    2.433606   2.820289   4.241084   5.069252   2.143494
    34  H    3.439272   2.165073   2.714266   4.084735   4.980550
    35  H    3.906993   3.419467   4.625774   5.836716   4.303542
    36  H    3.419461   3.906981   5.327833   6.131643   2.472449
                   26         27         28         29         30
    26  H    0.000000
    27  H    2.472454   0.000000
    28  C    4.625765   2.714271   0.000000
    29  C    5.327855   4.619376   2.805160   0.000000
    30  H    4.303537   4.980550   4.619357   2.714285   0.000000
    31  H    2.491180   4.303540   5.327829   4.625775   2.472441
    32  C    6.131643   4.872618   2.422792   1.376614   4.084740
    33  C    5.836696   4.084736   1.376623   2.422776   4.872603
    34  H    5.941763   5.565661   3.892861   1.087703   2.484070
    35  H    7.201308   5.941778   3.400737   2.139338   4.785105
    36  H    6.756680   4.785098   2.139348   3.400718   5.941764
                   31         32         33         34         35
    31  H    0.000000
    32  C    5.836696   0.000000
    33  C    6.131623   1.416961   0.000000
    34  H    4.785079   2.143513   3.413485   0.000000
    35  H    6.756680   1.086756   2.170475   2.472472   0.000000
    36  H    7.201289   2.170467   1.086757   4.303550   2.491180
                   36
    36  H    0.000000
 Symmetry turned off by external request.
 Stoichiometry    C20H16
 Framework group  CS[X(C20H16)]
 Deg. of freedom    51
 Full point group                 CS      NOp   2
 Rotational constants (GHZ):      0.4410042      0.1459894      0.1276439
 Standard basis: VSTO-6G (5D, 7F)
                         Coordinates in L301:                         
 ---------------------------------------------------------------------
 Center     Atomic     Atomic              Coordinates (Angstroms)
 Number     Number      Type              X           Y           Z
 ---------------------------------------------------------------------
    1          6             0       -2.433600   -0.708480    0.000000
    2          6             0       -1.244780   -1.402580    0.000000
    3          6             0       -0.000002   -0.716892    0.000000
    4          6             0        0.000002    0.716891    0.000000
    5          6             0       -1.244760    1.402570    0.000000
    6          6             0       -2.433600    0.708481    0.000000
    7          1             0        1.242040   -2.490270    0.000000
    8          1             0       -3.378340   -1.245590    0.000000
    9          1             0       -1.242040   -2.490280    0.000000
   10          6             0        1.244760   -1.402580    0.000000
   11          6             0        1.244780    1.402580    0.000000
   12          1             0       -1.242040    2.490270    0.000000
   13          1             0       -3.378330    1.245590    0.000000
   14          6             0        2.433600    0.708481    0.000000
   15          6             0        2.433590   -0.708480    0.000000
   16          1             0        1.242030    2.490280    0.000000
   17          1             0        3.378350    1.245590    0.000000
   18          1             0        3.378340   -1.245590    0.000000
   19          6             0       -2.433600   -0.708480    7.000000
   20          6             0       -1.244780   -1.402580    7.000000
   21          6             0       -0.000002   -0.716892    7.000000
   22          6             0        0.000002    0.716891    7.000000
   23          6             0       -1.244760    1.402570    7.000000
   24          6             0       -2.433600    0.708481    7.000000
   25          1             0        1.242040   -2.490270    7.000000
   26          1             0       -3.378340   -1.245590    7.000000
   27          1             0       -1.242040   -2.490280    7.000000
   28          6             0        1.244760   -1.402580    7.000000
   29          6             0        1.244780    1.402580    7.000000
   30          1             0       -1.242040    2.490270    7.000000
   31          1             0       -3.378330    1.245590    7.000000
   32          6             0        2.433600    0.708481    7.000000
   33          6             0        2.433590   -0.708480    7.000000
   34          1             0        1.242030    2.490280    7.000000
   35          1             0        3.378350    1.245590    7.000000
   36          1             0        3.378340   -1.245590    7.000000
 ---------------------------------------------------------------------
 LdAtmC:  AtmChg=     4.000000     4.000000     4.000000     4.000000     4.000000
 LdAtmC:  AtmChg=     4.000000     1.000000     1.000000     1.000000     4.000000
 LdAtmC:  AtmChg=     4.000000     1.000000     1.000000     4.000000     4.000000
 LdAtmC:  AtmChg=     1.000000     1.000000     1.000000     4.000000     4.000000
 LdAtmC:  AtmChg=     4.000000     4.000000     4.000000     4.000000     1.000000
 LdAtmC:  AtmChg=     1.000000     1.000000     4.000000     4.000000     1.000000
 LdAtmC:  AtmChg=     1.000000     4.000000     4.000000     1.000000     1.000000
 LdAtmC:  AtmChg=     1.000000
 AtZEff=  -3.9000000  -3.9000000  -3.9000000  -3.9000000  -3.9000000  -3.9000000  -1.0000000  -1.0000000  -1.0000000  -3.9000000
 AtZEff=  -3.9000000  -1.0000000  -1.0000000  -3.9000000  -3.9000000  -1.0000000  -1.0000000  -1.0000000  -3.9000000  -3.9000000
 AtZEff=  -3.9000000  -3.9000000  -3.9000000  -3.9000000  -1.0000000  -1.0000000  -1.0000000  -3.9000000  -3.9000000  -1.0000000
 AtZEff=  -1.0000000  -3.9000000  -3.9000000  -1.0000000  -1.0000000  -1.0000000
 Integral buffers will be    131072 words long.
 Regular integral format.
 Two-electron integral symmetry is turned off.
    96 basis functions,   576 primitive gaussians,    96 cartesian basis functions
    48 alpha electrons       48 beta electrons
       nuclear repulsion energy       610.5190077078 Hartrees.
 Do NDO integrals.
 NPDir=0 NMtPBC=     1 NCelOv=     1 NCel=       1 NClECP=     1 NCelD=      1
         NCelK=      1 NCelE2=     1 NClLst=     1 CellRange=     0.0.
 One-electron integrals computed using PRISM.
 Entering OneElI...
 Calculate overlap and kinetic energy integrals
    NBasis =  96  MinDer = 0  MaxDer = 0
 Requested accuracy = 0.1000D-12
 PrsmSu:  NPrtUS=   1 ThrOK=F
 PRISM was handed     5762198 working-precision words and  1596 shell-pairs
 *** Overlap *** 
                1             2             3             4             5
      1  0.100000D+01
      2  0.000000D+00  0.100000D+01
      3  0.000000D+00  0.000000D+00  0.100000D+01
      4  0.000000D+00  0.000000D+00  0.000000D+00  0.100000D+01
      5  0.418191D+00  0.363502D+00 -0.212233D+00  0.000000D+00  0.100000D+01
      6 -0.363502D+00 -0.180916D+00  0.253964D+00  0.000000D+00  0.000000D+00
      7  0.212233D+00  0.253964D+00  0.105782D+00  0.000000D+00  0.000000D+00
      8  0.000000D+00  0.000000D+00  0.000000D+00  0.254061D+00  0.000000D+00
      9  0.846391D-01  0.110523D+00 -0.382034D-03  0.000000D+00  0.396101D+00
     10 -0.110523D+00 -0.138570D+00  0.594126D-03  0.000000D+00 -0.355765D+00
     11  0.382034D-03  0.594126D-03  0.333092D-01  0.000000D+00 -0.195974D+00
     12  0.000000D+00  0.000000D+00  0.000000D+00  0.333113D-01  0.000000D+00
     13  0.416121D-01  0.490741D-01  0.287429D-01  0.000000D+00  0.810676D-01
     14 -0.490741D-01 -0.527411D-01 -0.393103D-01  0.000000D+00 -0.537875D-01
     15 -0.287429D-01 -0.393103D-01 -0.864900D-02  0.000000D+00 -0.915831D-01
     16  0.000000D+00  0.000000D+00  0.000000D+00  0.143752D-01  0.000000D+00
     17  0.862706D-01  0.551960D-01  0.980127D-01  0.000000D+00  0.428279D-01
     18 -0.551960D-01 -0.801020D-02 -0.747485D-01  0.000000D+00  0.000000D+00
     19 -0.980127D-01 -0.747485D-01 -0.986481D-01  0.000000D+00 -0.584429D-01
     20  0.000000D+00  0.000000D+00  0.000000D+00  0.340845D-01  0.000000D+00
     21  0.398147D+00  0.000000D+00  0.407575D+00  0.000000D+00  0.862707D-01
     22  0.000000D+00  0.237410D+00  0.000000D+00  0.000000D+00  0.551950D-01
     23 -0.407575D+00  0.000000D+00 -0.331866D+00  0.000000D+00 -0.980133D-01
     24  0.000000D+00  0.000000D+00  0.000000D+00  0.237410D+00  0.000000D+00
     25  0.333994D-02  0.419336D-02 -0.203276D-02  0.000000D+00  0.460693D-01
     26  0.520724D+00 -0.425568D+00 -0.241947D+00  0.000000D+00  0.122081D+00
     27  0.121262D+00  0.818767D-01 -0.122434D+00  0.000000D+00  0.520189D+00
     28  0.632579D-02  0.913905D-02 -0.172452D-02  0.000000D+00  0.766371D-01
     29 -0.913905D-02 -0.130801D-01  0.278265D-02  0.000000D+00 -0.100826D+00
     30  0.172452D-02  0.278265D-02  0.114141D-02  0.000000D+00  0.000000D+00
     31  0.000000D+00  0.000000D+00  0.000000D+00  0.166649D-02  0.000000D+00
     32  0.207463D-02  0.271691D-02  0.155926D-02  0.000000D+00  0.622624D-02
     33 -0.271691D-02 -0.344846D-02 -0.225274D-02  0.000000D+00 -0.607896D-02
     34 -0.155926D-02 -0.225274D-02 -0.816083D-03  0.000000D+00 -0.684958D-02
     35  0.000000D+00  0.000000D+00  0.000000D+00  0.476789D-03  0.000000D+00
     36  0.126733D-01  0.593732D-02  0.159388D-01  0.000000D+00  0.493725D-02
     37  0.116094D+00 -0.615787D-01  0.127369D+00  0.000000D+00  0.129872D-01
     38  0.279191D-03  0.415846D-03  0.121063D-03  0.000000D+00  0.207463D-02
     39 -0.415846D-03 -0.620709D-03 -0.195609D-03  0.000000D+00 -0.271691D-02
     40 -0.121063D-03 -0.195609D-03 -0.574568D-05  0.000000D+00 -0.155926D-02
     41  0.000000D+00  0.000000D+00  0.000000D+00  0.512010D-04  0.000000D+00
     42  0.463427D-03  0.715545D-03  0.000000D+00  0.000000D+00  0.632565D-02
     43 -0.715545D-03 -0.111338D-02  0.000000D+00  0.000000D+00 -0.913886D-02
     44  0.000000D+00  0.000000D+00  0.898024D-04  0.000000D+00 -0.172448D-02
     45  0.000000D+00  0.000000D+00  0.000000D+00  0.898024D-04  0.000000D+00
     46  0.615270D-03  0.675946D-03  0.588250D-03  0.000000D+00  0.107651D-02
     47  0.303512D-04  0.440305D-04  0.148037D-04  0.000000D+00  0.216579D-03
     48  0.635625D-04  0.960250D-04 -0.887414D-05  0.000000D+00  0.106156D-02
     49  0.126581D-05  0.000000D+00  0.000000D+00  0.195156D-05  0.000000D+00
     50  0.000000D+00  0.000000D+00  0.000000D+00  0.000000D+00  0.000000D+00
     51  0.000000D+00  0.000000D+00  0.000000D+00  0.000000D+00  0.000000D+00
     52 -0.195156D-05  0.000000D+00  0.000000D+00 -0.302143D-05 -0.126137D-05
     53  0.000000D+00  0.000000D+00  0.000000D+00  0.126137D-05  0.126581D-05
     54  0.000000D+00  0.000000D+00  0.000000D+00  0.000000D+00  0.000000D+00
     55  0.000000D+00  0.000000D+00  0.000000D+00  0.000000D+00  0.000000D+00
     56 -0.126137D-05  0.000000D+00  0.000000D+00 -0.190352D-05 -0.195156D-05
     57  0.000000D+00  0.000000D+00  0.000000D+00  0.000000D+00  0.000000D+00
     58  0.000000D+00  0.000000D+00  0.000000D+00  0.000000D+00  0.000000D+00
     59  0.000000D+00  0.000000D+00  0.000000D+00  0.000000D+00  0.000000D+00
     60  0.000000D+00  0.000000D+00  0.000000D+00  0.000000D+00 -0.122580D-05
     61  0.000000D+00  0.000000D+00  0.000000D+00  0.000000D+00  0.000000D+00
     62  0.000000D+00  0.000000D+00  0.000000D+00  0.000000D+00  0.000000D+00
     63  0.000000D+00  0.000000D+00  0.000000D+00  0.000000D+00  0.000000D+00
     64  0.000000D+00  0.000000D+00  0.000000D+00  0.000000D+00  0.000000D+00
     65  0.000000D+00  0.000000D+00  0.000000D+00  0.000000D+00  0.000000D+00
     66  0.000000D+00  0.000000D+00  0.000000D+00  0.000000D+00  0.000000D+00
     67  0.000000D+00  0.000000D+00  0.000000D+00  0.000000D+00  0.000000D+00
     68  0.000000D+00  0.000000D+00  0.000000D+00  0.000000D+00  0.000000D+00
     69  0.000000D+00  0.000000D+00  0.000000D+00  0.122915D-05  0.000000D+00
     70  0.000000D+00  0.000000D+00  0.000000D+00  0.000000D+00  0.000000D+00
     71  0.000000D+00  0.000000D+00  0.000000D+00  0.000000D+00  0.000000D+00
     72 -0.122915D-05  0.000000D+00  0.000000D+00 -0.185209D-05  0.000000D+00
     73  0.000000D+00  0.000000D+00  0.000000D+00  0.000000D+00  0.000000D+00
     74  0.240856D-05  0.000000D+00  0.000000D+00  0.369127D-05  0.123998D-05
     75  0.123567D-05  0.000000D+00  0.000000D+00  0.183116D-05  0.240758D-05
     76  0.000000D+00  0.000000D+00  0.000000D+00  0.000000D+00  0.000000D+00
     77  0.000000D+00  0.000000D+00  0.000000D+00  0.000000D+00  0.000000D+00
     78  0.000000D+00  0.000000D+00  0.000000D+00  0.000000D+00  0.000000D+00
     79  0.000000D+00  0.000000D+00  0.000000D+00  0.000000D+00  0.000000D+00
     80  0.000000D+00  0.000000D+00  0.000000D+00  0.000000D+00  0.000000D+00
     81  0.000000D+00  0.000000D+00  0.000000D+00  0.000000D+00  0.000000D+00
     82  0.000000D+00  0.000000D+00  0.000000D+00  0.000000D+00  0.000000D+00
     83  0.000000D+00  0.000000D+00  0.000000D+00  0.000000D+00  0.000000D+00
     84  0.000000D+00  0.000000D+00  0.000000D+00  0.000000D+00  0.000000D+00
     85  0.120803D-05  0.000000D+00  0.000000D+00  0.178817D-05  0.000000D+00
     86  0.000000D+00  0.000000D+00  0.000000D+00  0.000000D+00  0.000000D+00
     87  0.000000D+00  0.000000D+00  0.000000D+00  0.000000D+00  0.000000D+00
     88  0.000000D+00  0.000000D+00  0.000000D+00  0.000000D+00  0.000000D+00
     89  0.000000D+00  0.000000D+00  0.000000D+00  0.000000D+00  0.000000D+00
     90  0.000000D+00  0.000000D+00  0.000000D+00  0.000000D+00  0.000000D+00
     91  0.000000D+00  0.000000D+00  0.000000D+00  0.000000D+00  0.000000D+00
     92  0.000000D+00  0.000000D+00  0.000000D+00  0.000000D+00  0.000000D+00
     93  0.000000D+00  0.000000D+00  0.000000D+00  0.000000D+00  0.000000D+00
     94  0.000000D+00  0.000000D+00  0.000000D+00  0.000000D+00  0.000000D+00
     95  0.000000D+00  0.000000D+00  0.000000D+00  0.000000D+00  0.000000D+00
     96  0.000000D+00  0.000000D+00  0.000000D+00  0.000000D+00  0.000000D+00
                6             7             8             9            10
      6  0.100000D+01
      7  0.000000D+00  0.100000D+01
      8  0.000000D+00  0.000000D+00  0.100000D+01
      9  0.355765D+00  0.195974D+00  0.000000D+00  0.100000D+01
     10 -0.199856D+00 -0.239946D+00  0.000000D+00  0.000000D+00  0.100000D+01
     11 -0.239946D+00  0.103561D+00  0.000000D+00  0.000000D+00  0.000000D+00
     12  0.000000D+00  0.000000D+00  0.235736D+00  0.000000D+00  0.000000D+00
     13  0.537875D-01  0.915831D-01  0.000000D+00  0.389948D+00  0.117580D-05
     14 -0.107884D-01 -0.722277D-01  0.000000D+00 -0.117580D-05  0.230728D+00
     15 -0.722277D-01 -0.913494D-01  0.000000D+00 -0.401898D+00 -0.164752D-05
     16  0.000000D+00  0.000000D+00  0.316316D-01  0.000000D+00  0.000000D+00
     17  0.000000D+00  0.584429D-01  0.000000D+00  0.810704D-01 -0.537887D-01
     18  0.148673D-01  0.000000D+00  0.000000D+00  0.537887D-01 -0.107874D-01
     19  0.000000D+00 -0.777017D-01  0.000000D+00 -0.915865D-01  0.722294D-01
     20  0.000000D+00  0.000000D+00  0.148673D-01  0.000000D+00  0.000000D+00
     21 -0.551950D-01  0.980133D-01  0.000000D+00  0.416123D-01 -0.490743D-01
     22 -0.800879D-02  0.747477D-01  0.000000D+00  0.490743D-01 -0.527412D-01
     23  0.747477D-01 -0.986495D-01  0.000000D+00 -0.287431D-01  0.393105D-01
     24  0.000000D+00  0.000000D+00  0.340845D-01  0.000000D+00  0.000000D+00
     25  0.541424D-01 -0.236809D-01  0.000000D+00  0.117112D+00  0.818180D-01
     26 -0.147808D+00  0.108759D-01  0.000000D+00  0.125287D-01 -0.166183D-01
     27  0.123245D-02 -0.489247D+00  0.000000D+00  0.117111D+00 -0.818167D-01
     28  0.100826D+00  0.000000D+00  0.000000D+00  0.396108D+00  0.355768D+00
     29 -0.127715D+00  0.000000D+00  0.000000D+00 -0.355768D+00 -0.199851D+00
     30  0.000000D+00  0.295730D-01  0.000000D+00  0.195978D+00  0.239950D+00
     31  0.000000D+00  0.000000D+00  0.295730D-01  0.000000D+00  0.000000D+00
     32  0.607896D-02  0.684958D-02  0.000000D+00  0.810675D-01  0.537874D-01
     33 -0.499051D-02 -0.746761D-02  0.000000D+00 -0.537874D-01 -0.107883D-01
     34 -0.746761D-02 -0.677733D-02  0.000000D+00 -0.915831D-01 -0.722276D-01
     35  0.000000D+00  0.000000D+00  0.163695D-02  0.000000D+00  0.000000D+00
     36  0.479566D-05  0.681342D-02  0.000000D+00  0.120610D-01 -0.585455D-02
     37 -0.109270D-01  0.135626D-01  0.000000D+00  0.479855D-02 -0.573066D-02
     38  0.271691D-02  0.155926D-02  0.000000D+00  0.416121D-01  0.490740D-01
     39 -0.344846D-02 -0.225274D-02  0.000000D+00 -0.490740D-01 -0.527410D-01
     40 -0.225274D-02 -0.816084D-03  0.000000D+00 -0.287429D-01 -0.393103D-01
     41  0.000000D+00  0.000000D+00  0.476788D-03  0.000000D+00  0.000000D+00
     42  0.913886D-02  0.172448D-02  0.000000D+00  0.846401D-01  0.110524D+00
     43 -0.130798D-01 -0.278258D-02  0.000000D+00 -0.110524D+00 -0.138571D+00
     44 -0.278258D-02  0.114138D-02  0.000000D+00 -0.382039D-03 -0.594133D-03
     45  0.000000D+00  0.000000D+00  0.166645D-02  0.000000D+00  0.000000D+00
     46  0.832971D-03  0.130394D-02  0.000000D+00  0.120608D-01  0.585443D-02
     47  0.279621D-03  0.160170D-03  0.000000D+00  0.479835D-02  0.573044D-02
     48  0.152544D-02  0.518003D-04  0.000000D+00  0.125287D-01  0.166182D-01
     49  0.000000D+00  0.000000D+00  0.126137D-05  0.000000D+00  0.000000D+00
     50  0.000000D+00  0.000000D+00  0.000000D+00  0.000000D+00  0.000000D+00
     51  0.000000D+00  0.000000D+00  0.000000D+00  0.000000D+00  0.000000D+00
     52  0.000000D+00  0.000000D+00 -0.190352D-05  0.000000D+00  0.000000D+00
     53  0.000000D+00  0.000000D+00  0.195156D-05  0.000000D+00  0.000000D+00
     54  0.000000D+00  0.000000D+00  0.000000D+00  0.000000D+00  0.000000D+00
     55  0.000000D+00  0.000000D+00  0.000000D+00  0.000000D+00  0.000000D+00
     56  0.000000D+00  0.000000D+00 -0.302143D-05 -0.122580D-05  0.000000D+00
     57  0.000000D+00  0.000000D+00  0.122580D-05  0.126581D-05  0.000000D+00
     58  0.000000D+00  0.000000D+00  0.000000D+00  0.000000D+00  0.000000D+00
     59  0.000000D+00  0.000000D+00  0.000000D+00  0.000000D+00  0.000000D+00
     60  0.000000D+00  0.000000D+00 -0.184676D-05 -0.195156D-05  0.000000D+00
     61  0.000000D+00  0.000000D+00  0.000000D+00  0.000000D+00  0.000000D+00
     62  0.000000D+00  0.000000D+00  0.000000D+00  0.000000D+00  0.000000D+00
     63  0.000000D+00  0.000000D+00  0.000000D+00  0.000000D+00  0.000000D+00
     64  0.000000D+00  0.000000D+00  0.000000D+00 -0.121569D-05  0.000000D+00
     65  0.000000D+00  0.000000D+00  0.000000D+00  0.000000D+00  0.000000D+00
     66  0.000000D+00  0.000000D+00  0.000000D+00  0.000000D+00  0.000000D+00
     67  0.000000D+00  0.000000D+00  0.000000D+00  0.000000D+00  0.000000D+00
     68  0.000000D+00  0.000000D+00  0.000000D+00  0.000000D+00  0.000000D+00
     69  0.000000D+00  0.000000D+00  0.000000D+00  0.000000D+00  0.000000D+00
     70  0.000000D+00  0.000000D+00  0.000000D+00  0.000000D+00  0.000000D+00
     71  0.000000D+00  0.000000D+00  0.000000D+00  0.000000D+00  0.000000D+00
     72  0.000000D+00  0.000000D+00  0.000000D+00  0.000000D+00  0.000000D+00
     73  0.000000D+00  0.000000D+00  0.104116D-05  0.121353D-05  0.000000D+00
     74  0.000000D+00  0.000000D+00  0.183787D-05  0.000000D+00  0.000000D+00
     75  0.000000D+00  0.000000D+00  0.368969D-05  0.121353D-05  0.000000D+00
     76  0.000000D+00  0.000000D+00  0.000000D+00  0.000000D+00  0.000000D+00
     77  0.000000D+00  0.000000D+00  0.000000D+00  0.000000D+00  0.000000D+00
     78  0.000000D+00  0.000000D+00  0.000000D+00  0.000000D+00  0.000000D+00
     79  0.000000D+00  0.000000D+00  0.000000D+00 -0.122581D-05  0.000000D+00
     80  0.000000D+00  0.000000D+00  0.000000D+00  0.000000D+00  0.000000D+00
     81  0.000000D+00  0.000000D+00  0.000000D+00  0.000000D+00  0.000000D+00
     82  0.000000D+00  0.000000D+00  0.000000D+00  0.000000D+00  0.000000D+00
     83  0.000000D+00  0.000000D+00  0.000000D+00  0.000000D+00  0.000000D+00
     84  0.000000D+00  0.000000D+00  0.000000D+00  0.000000D+00  0.000000D+00
     85  0.000000D+00  0.000000D+00  0.000000D+00  0.000000D+00  0.000000D+00
     86  0.000000D+00  0.000000D+00  0.000000D+00  0.000000D+00  0.000000D+00
     87  0.000000D+00  0.000000D+00  0.000000D+00  0.000000D+00  0.000000D+00
     88  0.000000D+00  0.000000D+00  0.000000D+00  0.000000D+00  0.000000D+00
     89  0.000000D+00  0.000000D+00  0.000000D+00  0.000000D+00  0.000000D+00
     90  0.000000D+00  0.000000D+00  0.000000D+00  0.000000D+00  0.000000D+00
     91  0.000000D+00  0.000000D+00  0.000000D+00  0.000000D+00  0.000000D+00
     92  0.000000D+00  0.000000D+00  0.000000D+00  0.000000D+00  0.000000D+00
     93  0.000000D+00  0.000000D+00  0.000000D+00  0.000000D+00  0.000000D+00
     94  0.000000D+00  0.000000D+00  0.000000D+00  0.000000D+00  0.000000D+00
     95  0.000000D+00  0.000000D+00  0.000000D+00  0.000000D+00  0.000000D+00
     96  0.000000D+00  0.000000D+00  0.000000D+00  0.000000D+00  0.000000D+00
               11            12            13            14            15
     11  0.100000D+01
     12  0.000000D+00  0.100000D+01
     13  0.401898D+00  0.000000D+00  0.100000D+01
     14 -0.164752D-05  0.000000D+00  0.000000D+00  0.100000D+01
     15 -0.332405D+00  0.000000D+00  0.000000D+00  0.000000D+00  0.100000D+01
     16  0.000000D+00  0.230728D+00  0.000000D+00  0.000000D+00  0.000000D+00
     17  0.915865D-01  0.000000D+00  0.396110D+00 -0.355770D+00  0.195976D+00
     18  0.722294D-01  0.000000D+00  0.355770D+00 -0.199853D+00  0.239949D+00
     19 -0.913529D-01  0.000000D+00 -0.195976D+00  0.239949D+00  0.103567D+00
     20  0.000000D+00  0.316329D-01  0.000000D+00  0.000000D+00  0.000000D+00
     21  0.287431D-01  0.000000D+00  0.846385D-01 -0.110522D+00 -0.381940D-03
     22  0.393105D-01  0.000000D+00  0.110522D+00 -0.138569D+00 -0.593980D-03
     23 -0.864913D-02  0.000000D+00  0.381940D-03 -0.593980D-03  0.333089D-01
     24  0.000000D+00  0.143753D-01  0.000000D+00  0.000000D+00  0.000000D+00
     25 -0.116819D+00  0.000000D+00  0.120610D-01  0.585456D-02 -0.151175D-01
     26 -0.260071D-02  0.000000D+00  0.479844D-02 -0.573053D-02 -0.332887D-02
     27 -0.116818D+00  0.000000D+00  0.120608D-01 -0.585444D-02 -0.151172D-01
     28 -0.195978D+00  0.000000D+00  0.810694D-01  0.537878D-01 -0.915855D-01
     29  0.239950D+00  0.000000D+00 -0.537878D-01 -0.107871D-01  0.722284D-01
     30  0.103563D+00  0.000000D+00  0.915855D-01  0.722284D-01 -0.913522D-01
     31  0.000000D+00  0.235741D+00  0.000000D+00  0.000000D+00  0.000000D+00
     32  0.915831D-01  0.000000D+00  0.396101D+00  0.355765D+00  0.195974D+00
     33 -0.722276D-01  0.000000D+00 -0.355765D+00 -0.199855D+00 -0.239946D+00
     34 -0.913494D-01  0.000000D+00 -0.195974D+00 -0.239946D+00  0.103561D+00
     35  0.000000D+00  0.316315D-01  0.000000D+00  0.000000D+00  0.000000D+00
     36  0.151175D-01  0.000000D+00  0.117112D+00 -0.818178D-01  0.116819D+00
     37  0.332896D-02  0.000000D+00  0.125289D-01 -0.166185D-01  0.260075D-02
     38  0.287429D-01  0.000000D+00  0.846392D-01  0.110523D+00 -0.381944D-03
     39 -0.393103D-01  0.000000D+00 -0.110523D+00 -0.138570D+00  0.593985D-03
     40 -0.864905D-02  0.000000D+00  0.381944D-03  0.593985D-03  0.333093D-01
     41  0.000000D+00  0.143752D-01  0.000000D+00  0.000000D+00  0.000000D+00
     42  0.382039D-03  0.000000D+00  0.416131D-01  0.490752D-01 -0.287437D-01
     43 -0.594133D-03  0.000000D+00 -0.490752D-01 -0.527420D-01  0.393113D-01
     44  0.333097D-01  0.000000D+00  0.287437D-01  0.393113D-01 -0.864931D-02
     45  0.000000D+00  0.333117D-01  0.000000D+00  0.000000D+00  0.000000D+00
     46  0.151173D-01  0.000000D+00  0.117112D+00  0.818169D-01  0.116820D+00
     47  0.332881D-02  0.000000D+00  0.125285D-01  0.166180D-01  0.260066D-02
     48 -0.260069D-02  0.000000D+00  0.479848D-02  0.573058D-02 -0.332890D-02
     49  0.000000D+00  0.000000D+00  0.000000D+00  0.000000D+00  0.000000D+00
     50  0.000000D+00  0.000000D+00  0.000000D+00  0.000000D+00  0.000000D+00
     51  0.000000D+00  0.000000D+00  0.000000D+00  0.000000D+00  0.000000D+00
     52  0.000000D+00  0.000000D+00  0.000000D+00  0.000000D+00  0.000000D+00
     53  0.000000D+00  0.122580D-05  0.000000D+00  0.000000D+00  0.000000D+00
     54  0.000000D+00  0.000000D+00  0.000000D+00  0.000000D+00  0.000000D+00
     55  0.000000D+00  0.000000D+00  0.000000D+00  0.000000D+00  0.000000D+00
     56  0.000000D+00 -0.184676D-05  0.000000D+00  0.000000D+00  0.000000D+00
     57  0.000000D+00  0.195156D-05  0.000000D+00  0.000000D+00  0.000000D+00
     58  0.000000D+00  0.000000D+00  0.000000D+00  0.000000D+00  0.000000D+00
     59  0.000000D+00  0.000000D+00  0.000000D+00  0.000000D+00  0.000000D+00
     60  0.000000D+00 -0.302143D-05 -0.121569D-05  0.000000D+00  0.000000D+00
     61  0.000000D+00  0.121569D-05  0.126581D-05  0.000000D+00  0.000000D+00
     62  0.000000D+00  0.000000D+00  0.000000D+00  0.000000D+00  0.000000D+00
     63  0.000000D+00  0.000000D+00  0.000000D+00  0.000000D+00  0.000000D+00
     64  0.000000D+00 -0.183063D-05 -0.195156D-05  0.000000D+00  0.000000D+00
     65  0.000000D+00  0.000000D+00  0.000000D+00  0.000000D+00  0.000000D+00
     66  0.000000D+00  0.000000D+00  0.000000D+00  0.000000D+00  0.000000D+00
     67  0.000000D+00  0.000000D+00  0.000000D+00  0.000000D+00  0.000000D+00
     68  0.000000D+00  0.000000D+00 -0.122582D-05  0.000000D+00  0.000000D+00
     69  0.000000D+00  0.000000D+00  0.000000D+00  0.000000D+00  0.000000D+00
     70  0.000000D+00  0.000000D+00  0.000000D+00  0.000000D+00  0.000000D+00
     71  0.000000D+00  0.000000D+00  0.000000D+00  0.000000D+00  0.000000D+00
     72  0.000000D+00  0.000000D+00  0.000000D+00  0.000000D+00  0.000000D+00
     73  0.000000D+00  0.179673D-05  0.000000D+00  0.000000D+00  0.000000D+00
     74  0.000000D+00  0.000000D+00  0.000000D+00  0.000000D+00  0.000000D+00
     75  0.000000D+00  0.179672D-05  0.000000D+00  0.000000D+00  0.000000D+00
     76  0.000000D+00  0.122581D-05  0.000000D+00  0.000000D+00  0.000000D+00
     77  0.000000D+00  0.000000D+00  0.000000D+00  0.000000D+00  0.000000D+00
     78  0.000000D+00  0.000000D+00  0.000000D+00  0.000000D+00  0.000000D+00
     79  0.000000D+00 -0.184678D-05  0.000000D+00  0.000000D+00  0.000000D+00
     80  0.000000D+00  0.000000D+00  0.000000D+00  0.000000D+00  0.000000D+00
     81  0.000000D+00  0.000000D+00  0.000000D+00  0.000000D+00  0.000000D+00
     82  0.000000D+00  0.000000D+00  0.000000D+00  0.000000D+00  0.000000D+00
     83  0.000000D+00  0.000000D+00 -0.122580D-05  0.000000D+00  0.000000D+00
     84  0.000000D+00  0.000000D+00  0.121353D-05  0.000000D+00  0.000000D+00
     85  0.000000D+00  0.000000D+00  0.000000D+00  0.000000D+00  0.000000D+00
     86  0.000000D+00  0.000000D+00  0.000000D+00  0.000000D+00  0.000000D+00
     87  0.000000D+00  0.000000D+00  0.000000D+00  0.000000D+00  0.000000D+00
     88  0.000000D+00  0.000000D+00  0.000000D+00  0.000000D+00  0.000000D+00
     89  0.000000D+00  0.000000D+00  0.000000D+00  0.000000D+00  0.000000D+00
     90  0.000000D+00  0.000000D+00  0.000000D+00  0.000000D+00  0.000000D+00
     91  0.000000D+00  0.000000D+00  0.000000D+00  0.000000D+00  0.000000D+00
     92  0.000000D+00  0.000000D+00  0.000000D+00  0.000000D+00  0.000000D+00
     93  0.000000D+00  0.000000D+00  0.000000D+00  0.000000D+00  0.000000D+00
     94  0.000000D+00  0.000000D+00  0.121353D-05  0.000000D+00  0.000000D+00
     95  0.000000D+00  0.000000D+00  0.000000D+00  0.000000D+00  0.000000D+00
     96  0.000000D+00  0.000000D+00  0.000000D+00  0.000000D+00  0.000000D+00
               16            17            18            19            20
     16  0.100000D+01
     17  0.000000D+00  0.100000D+01
     18  0.000000D+00  0.000000D+00  0.100000D+01
     19  0.000000D+00  0.000000D+00  0.000000D+00  0.100000D+01
     20  0.235743D+00  0.000000D+00  0.000000D+00  0.000000D+00  0.100000D+01
     21  0.000000D+00  0.418185D+00 -0.363502D+00 -0.212226D+00  0.000000D+00
     22  0.000000D+00  0.363502D+00 -0.180925D+00 -0.253958D+00  0.000000D+00
     23  0.000000D+00  0.212226D+00 -0.253958D+00  0.105785D+00  0.000000D+00
     24  0.333110D-01  0.000000D+00  0.000000D+00  0.000000D+00  0.254056D+00
     25  0.000000D+00  0.107656D-02  0.833011D-03 -0.130400D-02  0.000000D+00
     26  0.000000D+00  0.129869D-01 -0.109269D-01 -0.135622D-01  0.000000D+00
     27  0.000000D+00  0.493725D-02  0.476065D-05 -0.681342D-02  0.000000D+00
     28  0.000000D+00  0.622670D-02  0.607935D-02 -0.685011D-02  0.000000D+00
     29  0.000000D+00 -0.607935D-02 -0.499074D-02  0.746813D-02  0.000000D+00
     30  0.000000D+00  0.685011D-02  0.746813D-02 -0.677788D-02  0.000000D+00
     31  0.316324D-01  0.000000D+00  0.000000D+00  0.000000D+00  0.163708D-02
     32  0.000000D+00  0.766371D-01  0.100826D+00  0.000000D+00  0.000000D+00
     33  0.000000D+00 -0.100826D+00 -0.127715D+00  0.000000D+00  0.000000D+00
     34  0.000000D+00  0.000000D+00  0.000000D+00  0.295730D-01  0.000000D+00
     35  0.235736D+00  0.000000D+00  0.000000D+00  0.000000D+00  0.295730D-01
     36  0.000000D+00  0.520189D+00  0.122346D-02  0.489247D+00  0.000000D+00
     37  0.000000D+00  0.122080D+00 -0.147806D+00 -0.108750D-01  0.000000D+00
     38  0.000000D+00  0.632582D-02  0.913909D-02 -0.172450D-02  0.000000D+00
     39  0.000000D+00 -0.913909D-02 -0.130801D-01  0.278262D-02  0.000000D+00
     40  0.000000D+00  0.172450D-02  0.278262D-02  0.114143D-02  0.000000D+00
     41  0.333113D-01  0.000000D+00  0.000000D+00  0.000000D+00  0.166650D-02
     42  0.000000D+00  0.207478D-02  0.271710D-02 -0.155938D-02  0.000000D+00
     43  0.000000D+00 -0.271710D-02 -0.344869D-02  0.225290D-02  0.000000D+00
     44  0.000000D+00  0.155938D-02  0.225290D-02 -0.816142D-03  0.000000D+00
     45  0.143756D-01  0.000000D+00  0.000000D+00  0.000000D+00  0.476827D-03
     46  0.000000D+00  0.460708D-01  0.541439D-01  0.236823D-01  0.000000D+00
     47  0.000000D+00  0.106158D-02  0.152548D-02 -0.517983D-04  0.000000D+00
     48  0.000000D+00  0.216594D-03  0.279641D-03 -0.160181D-03  0.000000D+00
     49  0.000000D+00  0.000000D+00  0.000000D+00  0.000000D+00  0.000000D+00
     50  0.000000D+00  0.000000D+00  0.000000D+00  0.000000D+00  0.000000D+00
     51  0.000000D+00  0.000000D+00  0.000000D+00  0.000000D+00  0.000000D+00
     52  0.000000D+00  0.000000D+00  0.000000D+00  0.000000D+00  0.000000D+00
     53  0.000000D+00  0.000000D+00  0.000000D+00  0.000000D+00  0.000000D+00
     54  0.000000D+00  0.000000D+00  0.000000D+00  0.000000D+00  0.000000D+00
     55  0.000000D+00  0.000000D+00  0.000000D+00  0.000000D+00  0.000000D+00
     56  0.000000D+00  0.000000D+00  0.000000D+00  0.000000D+00  0.000000D+00
     57  0.121569D-05  0.000000D+00  0.000000D+00  0.000000D+00  0.000000D+00
     58  0.000000D+00  0.000000D+00  0.000000D+00  0.000000D+00  0.000000D+00
     59  0.000000D+00  0.000000D+00  0.000000D+00  0.000000D+00  0.000000D+00
     60 -0.183063D-05  0.000000D+00  0.000000D+00  0.000000D+00  0.000000D+00
     61  0.195156D-05  0.000000D+00  0.000000D+00  0.000000D+00  0.122582D-05
     62  0.000000D+00  0.000000D+00  0.000000D+00  0.000000D+00  0.000000D+00
     63  0.000000D+00  0.000000D+00  0.000000D+00  0.000000D+00  0.000000D+00
     64 -0.302143D-05 -0.122582D-05  0.000000D+00  0.000000D+00 -0.184678D-05
     65  0.122582D-05  0.126581D-05  0.000000D+00  0.000000D+00  0.195156D-05
     66  0.000000D+00  0.000000D+00  0.000000D+00  0.000000D+00  0.000000D+00
     67  0.000000D+00  0.000000D+00  0.000000D+00  0.000000D+00  0.000000D+00
     68 -0.184678D-05 -0.195156D-05  0.000000D+00  0.000000D+00 -0.302143D-05
     69  0.000000D+00  0.000000D+00  0.000000D+00  0.000000D+00  0.126136D-05
     70  0.000000D+00  0.000000D+00  0.000000D+00  0.000000D+00  0.000000D+00
     71  0.000000D+00  0.000000D+00  0.000000D+00  0.000000D+00  0.000000D+00
     72  0.000000D+00 -0.126136D-05  0.000000D+00  0.000000D+00 -0.190350D-05
     73  0.000000D+00  0.000000D+00  0.000000D+00  0.000000D+00  0.000000D+00
     74  0.000000D+00  0.000000D+00  0.000000D+00  0.000000D+00  0.000000D+00
     75  0.000000D+00  0.000000D+00  0.000000D+00  0.000000D+00  0.000000D+00
     76  0.000000D+00  0.000000D+00  0.000000D+00  0.000000D+00  0.000000D+00
     77  0.000000D+00  0.000000D+00  0.000000D+00  0.000000D+00  0.000000D+00
     78  0.000000D+00  0.000000D+00  0.000000D+00  0.000000D+00  0.000000D+00
     79  0.000000D+00  0.000000D+00  0.000000D+00  0.000000D+00  0.000000D+00
     80  0.122580D-05  0.000000D+00  0.000000D+00  0.000000D+00  0.000000D+00
     81  0.000000D+00  0.000000D+00  0.000000D+00  0.000000D+00  0.000000D+00
     82  0.000000D+00  0.000000D+00  0.000000D+00  0.000000D+00  0.000000D+00
     83 -0.184676D-05  0.000000D+00  0.000000D+00  0.000000D+00  0.000000D+00
     84  0.179672D-05  0.240758D-05  0.000000D+00  0.000000D+00  0.368969D-05
     85  0.000000D+00  0.123997D-05  0.000000D+00  0.000000D+00  0.183786D-05
     86  0.000000D+00  0.000000D+00  0.000000D+00  0.000000D+00  0.000000D+00
     87  0.000000D+00  0.000000D+00  0.000000D+00  0.000000D+00  0.000000D+00
     88  0.000000D+00  0.000000D+00  0.000000D+00  0.000000D+00  0.000000D+00
     89  0.000000D+00  0.000000D+00  0.000000D+00  0.000000D+00  0.000000D+00
     90  0.000000D+00  0.000000D+00  0.000000D+00  0.000000D+00  0.000000D+00
     91  0.000000D+00  0.000000D+00  0.000000D+00  0.000000D+00  0.000000D+00
     92  0.000000D+00  0.000000D+00  0.000000D+00  0.000000D+00  0.000000D+00
     93  0.000000D+00  0.000000D+00  0.000000D+00  0.000000D+00  0.000000D+00
     94  0.179673D-05  0.000000D+00  0.000000D+00  0.000000D+00  0.104118D-05
     95  0.000000D+00  0.000000D+00  0.000000D+00  0.000000D+00  0.000000D+00
     96  0.000000D+00  0.000000D+00  0.000000D+00  0.000000D+00  0.000000D+00
               21            22            23            24            25
     21  0.100000D+01
     22  0.000000D+00  0.100000D+01
     23  0.000000D+00  0.000000D+00  0.100000D+01
     24  0.000000D+00  0.000000D+00  0.000000D+00  0.100000D+01
     25  0.615268D-03  0.675945D-03 -0.588246D-03  0.000000D+00  0.100000D+01
     26  0.116093D+00 -0.615788D-01 -0.127368D+00  0.000000D+00  0.880750D-03
     27  0.126731D-01  0.593719D-02 -0.159385D-01  0.000000D+00  0.615645D-01
     28  0.207471D-02  0.271701D-02 -0.155933D-02  0.000000D+00  0.520195D+00
     29 -0.271701D-02 -0.344858D-02  0.225283D-02  0.000000D+00 -0.122347D-02
     30  0.155933D-02  0.225283D-02 -0.816123D-03  0.000000D+00 -0.489250D+00
     31  0.000000D+00  0.000000D+00  0.000000D+00  0.476810D-03  0.000000D+00
     32  0.632552D-02  0.913867D-02  0.172444D-02  0.000000D+00  0.493725D-02
     33 -0.913867D-02 -0.130796D-01 -0.278252D-02  0.000000D+00 -0.479566D-05
     34 -0.172444D-02 -0.278252D-02  0.114136D-02  0.000000D+00 -0.681342D-02
     35  0.000000D+00  0.000000D+00  0.000000D+00  0.166641D-02  0.000000D+00
     36  0.121264D+00  0.818782D-01  0.122436D+00  0.000000D+00  0.164370D-03
     37  0.520729D+00 -0.425570D+00  0.241950D+00  0.000000D+00  0.701853D-04
     38  0.463416D-03  0.715527D-03  0.000000D+00  0.000000D+00  0.126733D-01
     39 -0.715527D-03 -0.111335D-02  0.000000D+00  0.000000D+00 -0.593731D-02
     40  0.000000D+00  0.000000D+00  0.898000D-04  0.000000D+00 -0.159387D-01
     41  0.000000D+00  0.000000D+00  0.000000D+00  0.898000D-04  0.000000D+00
     42  0.279197D-03  0.415856D-03 -0.121066D-03  0.000000D+00  0.121265D+00
     43 -0.415856D-03 -0.620724D-03  0.195614D-03  0.000000D+00 -0.818782D-01
     44  0.121066D-03  0.195614D-03 -0.574589D-05  0.000000D+00 -0.122437D+00
     45  0.000000D+00  0.000000D+00  0.000000D+00  0.512024D-04  0.000000D+00
     46  0.333997D-02  0.419340D-02  0.203279D-02  0.000000D+00  0.585154D-03
     47  0.635610D-04  0.960227D-04  0.887390D-05  0.000000D+00  0.233178D-02
     48  0.303519D-04  0.440315D-04 -0.148041D-04  0.000000D+00  0.627495D-01
     49  0.000000D+00  0.000000D+00  0.000000D+00  0.122915D-05  0.000000D+00
     50  0.000000D+00  0.000000D+00  0.000000D+00  0.000000D+00  0.000000D+00
     51  0.000000D+00  0.000000D+00  0.000000D+00  0.000000D+00  0.000000D+00
     52 -0.122915D-05  0.000000D+00  0.000000D+00 -0.185209D-05  0.000000D+00
     53  0.000000D+00  0.000000D+00  0.000000D+00  0.000000D+00  0.000000D+00
     54  0.000000D+00  0.000000D+00  0.000000D+00  0.000000D+00  0.000000D+00
     55  0.000000D+00  0.000000D+00  0.000000D+00  0.000000D+00  0.000000D+00
     56  0.000000D+00  0.000000D+00  0.000000D+00  0.000000D+00 -0.104116D-05
     57  0.000000D+00  0.000000D+00  0.000000D+00  0.000000D+00  0.121353D-05
     58  0.000000D+00  0.000000D+00  0.000000D+00  0.000000D+00  0.000000D+00
     59  0.000000D+00  0.000000D+00  0.000000D+00  0.000000D+00  0.000000D+00
     60  0.000000D+00  0.000000D+00  0.000000D+00  0.000000D+00 -0.179673D-05
     61  0.000000D+00  0.000000D+00  0.000000D+00  0.000000D+00  0.000000D+00
     62  0.000000D+00  0.000000D+00  0.000000D+00  0.000000D+00  0.000000D+00
     63  0.000000D+00  0.000000D+00  0.000000D+00  0.000000D+00  0.000000D+00
     64  0.000000D+00  0.000000D+00  0.000000D+00  0.000000D+00  0.000000D+00
     65  0.000000D+00  0.000000D+00  0.000000D+00  0.126136D-05  0.000000D+00
     66  0.000000D+00  0.000000D+00  0.000000D+00  0.000000D+00  0.000000D+00
     67  0.000000D+00  0.000000D+00  0.000000D+00  0.000000D+00  0.000000D+00
     68 -0.126136D-05  0.000000D+00  0.000000D+00 -0.190350D-05  0.000000D+00
     69  0.126581D-05  0.000000D+00  0.000000D+00  0.195156D-05  0.000000D+00
     70  0.000000D+00  0.000000D+00  0.000000D+00  0.000000D+00  0.000000D+00
     71  0.000000D+00  0.000000D+00  0.000000D+00  0.000000D+00  0.000000D+00
     72 -0.195156D-05  0.000000D+00  0.000000D+00 -0.302143D-05  0.000000D+00
     73  0.000000D+00  0.000000D+00  0.000000D+00  0.000000D+00  0.553977D-05
     74  0.120802D-05  0.000000D+00  0.000000D+00  0.178816D-05  0.000000D+00
     75  0.000000D+00  0.000000D+00  0.000000D+00  0.000000D+00  0.185846D-05
     76  0.000000D+00  0.000000D+00  0.000000D+00  0.000000D+00  0.240759D-05
     77  0.000000D+00  0.000000D+00  0.000000D+00  0.000000D+00  0.000000D+00
     78  0.000000D+00  0.000000D+00  0.000000D+00  0.000000D+00  0.000000D+00
     79  0.000000D+00  0.000000D+00  0.000000D+00  0.000000D+00 -0.368970D-05
     80  0.000000D+00  0.000000D+00  0.000000D+00  0.000000D+00  0.000000D+00
     81  0.000000D+00  0.000000D+00  0.000000D+00  0.000000D+00  0.000000D+00
     82  0.000000D+00  0.000000D+00  0.000000D+00  0.000000D+00  0.000000D+00
     83  0.000000D+00  0.000000D+00  0.000000D+00  0.000000D+00  0.000000D+00
     84  0.123568D-05  0.000000D+00  0.000000D+00  0.183118D-05  0.000000D+00
     85  0.240857D-05  0.000000D+00  0.000000D+00  0.369129D-05  0.000000D+00
     86  0.000000D+00  0.000000D+00  0.000000D+00  0.000000D+00  0.000000D+00
     87  0.000000D+00  0.000000D+00  0.000000D+00  0.000000D+00  0.000000D+00
     88  0.000000D+00  0.000000D+00  0.000000D+00  0.000000D+00  0.000000D+00
     89  0.000000D+00  0.000000D+00  0.000000D+00  0.000000D+00  0.000000D+00
     90  0.000000D+00  0.000000D+00  0.000000D+00  0.000000D+00  0.123568D-05
     91  0.000000D+00  0.000000D+00  0.000000D+00  0.000000D+00  0.000000D+00
     92  0.000000D+00  0.000000D+00  0.000000D+00  0.000000D+00  0.000000D+00
     93  0.000000D+00  0.000000D+00  0.000000D+00  0.000000D+00 -0.183119D-05
     94  0.000000D+00  0.000000D+00  0.000000D+00  0.000000D+00  0.000000D+00
     95  0.000000D+00  0.000000D+00  0.000000D+00  0.000000D+00  0.000000D+00
     96  0.000000D+00  0.000000D+00  0.000000D+00  0.000000D+00  0.187733D-05
               26            27            28            29            30
     26  0.100000D+01
     27  0.627490D-01  0.100000D+01
     28  0.106161D-02  0.460704D-01  0.100000D+01
     29 -0.152551D-02 -0.541436D-01  0.000000D+00  0.100000D+01
     30  0.518028D-04 -0.236818D-01  0.000000D+00  0.000000D+00  0.100000D+01
     31  0.000000D+00  0.000000D+00  0.000000D+00  0.000000D+00  0.000000D+00
     32  0.216583D-03  0.107649D-02  0.428270D-01  0.000000D+00  0.584418D-01
     33 -0.279627D-03 -0.832964D-03  0.000000D+00  0.148670D-01  0.000000D+00
     34 -0.160173D-03 -0.130392D-02 -0.584418D-01  0.000000D+00 -0.777004D-01
     35  0.000000D+00  0.000000D+00  0.000000D+00  0.000000D+00  0.000000D+00
     36  0.233181D-02  0.585154D-03  0.107654D-02 -0.832994D-03  0.130397D-02
     37  0.608514D-01  0.233179D-02  0.216596D-03 -0.279643D-03  0.160184D-03
     38  0.303519D-04  0.615259D-03  0.862692D-01  0.551949D-01  0.980113D-01
     39 -0.440315D-04 -0.675935D-03 -0.551949D-01 -0.800992D-02 -0.747472D-01
     40 -0.148041D-04 -0.588239D-03 -0.980113D-01 -0.747472D-01 -0.986471D-01
     41  0.000000D+00  0.000000D+00  0.000000D+00  0.000000D+00  0.000000D+00
     42  0.635641D-04  0.333997D-02  0.418187D+00  0.363501D+00  0.212230D+00
     43 -0.960273D-04 -0.419339D-02 -0.363501D+00 -0.180920D+00 -0.253962D+00
     44 -0.887437D-05 -0.203279D-02 -0.212230D+00 -0.253962D+00  0.105781D+00
     45  0.000000D+00  0.000000D+00  0.000000D+00  0.000000D+00  0.000000D+00
     46  0.701843D-04  0.164365D-03  0.493715D-02 -0.477805D-05  0.681329D-02
     47  0.333018D-05  0.701818D-04  0.129865D-01  0.109266D-01  0.135619D-01
     48  0.101296D-04  0.880745D-03  0.122077D+00  0.147803D+00  0.108755D-01
     49  0.240856D-05  0.123567D-05  0.000000D+00  0.000000D+00  0.000000D+00
     50  0.000000D+00  0.000000D+00  0.000000D+00  0.000000D+00  0.000000D+00
     51  0.000000D+00  0.000000D+00  0.000000D+00  0.000000D+00  0.000000D+00
     52 -0.369127D-05 -0.183116D-05  0.000000D+00  0.000000D+00  0.000000D+00
     53  0.123998D-05  0.240758D-05  0.000000D+00  0.000000D+00  0.000000D+00
     54  0.000000D+00  0.000000D+00  0.000000D+00  0.000000D+00  0.000000D+00
     55  0.000000D+00  0.000000D+00  0.000000D+00  0.000000D+00  0.000000D+00
     56 -0.183787D-05 -0.368969D-05  0.000000D+00  0.000000D+00  0.000000D+00
     57  0.000000D+00  0.121353D-05  0.000000D+00  0.000000D+00  0.000000D+00
     58  0.000000D+00  0.000000D+00  0.000000D+00  0.000000D+00  0.000000D+00
     59  0.000000D+00  0.000000D+00  0.000000D+00  0.000000D+00  0.000000D+00
     60  0.000000D+00 -0.179672D-05 -0.122581D-05  0.000000D+00  0.000000D+00
     61  0.000000D+00  0.000000D+00  0.000000D+00  0.000000D+00  0.000000D+00
     62  0.000000D+00  0.000000D+00  0.000000D+00  0.000000D+00  0.000000D+00
     63  0.000000D+00  0.000000D+00  0.000000D+00  0.000000D+00  0.000000D+00
     64  0.000000D+00  0.000000D+00  0.000000D+00  0.000000D+00  0.000000D+00
     65  0.000000D+00  0.000000D+00  0.000000D+00  0.000000D+00  0.000000D+00
     66  0.000000D+00  0.000000D+00  0.000000D+00  0.000000D+00  0.000000D+00
     67  0.000000D+00  0.000000D+00  0.000000D+00  0.000000D+00  0.000000D+00
     68  0.000000D+00  0.000000D+00  0.000000D+00  0.000000D+00  0.000000D+00
     69  0.120802D-05  0.000000D+00  0.000000D+00  0.000000D+00  0.000000D+00
     70  0.000000D+00  0.000000D+00  0.000000D+00  0.000000D+00  0.000000D+00
     71  0.000000D+00  0.000000D+00  0.000000D+00  0.000000D+00  0.000000D+00
     72 -0.178816D-05  0.000000D+00  0.000000D+00  0.000000D+00  0.000000D+00
     73  0.000000D+00  0.185846D-05  0.240759D-05  0.000000D+00  0.000000D+00
     74  0.553977D-05  0.187732D-05  0.000000D+00  0.000000D+00  0.000000D+00
     75  0.187732D-05  0.553977D-05  0.000000D+00  0.000000D+00  0.000000D+00
     76  0.000000D+00  0.000000D+00  0.126581D-05  0.000000D+00  0.000000D+00
     77  0.000000D+00  0.000000D+00  0.000000D+00  0.000000D+00  0.000000D+00
     78  0.000000D+00  0.000000D+00  0.000000D+00  0.000000D+00  0.000000D+00
     79  0.000000D+00 -0.104117D-05 -0.195156D-05  0.000000D+00  0.000000D+00
     80  0.000000D+00  0.000000D+00  0.000000D+00  0.000000D+00  0.000000D+00
     81  0.000000D+00  0.000000D+00  0.000000D+00  0.000000D+00  0.000000D+00
     82  0.000000D+00  0.000000D+00  0.000000D+00  0.000000D+00  0.000000D+00
     83  0.000000D+00  0.000000D+00  0.000000D+00  0.000000D+00  0.000000D+00
     84  0.000000D+00  0.000000D+00  0.000000D+00  0.000000D+00  0.000000D+00
     85  0.184699D-05  0.000000D+00  0.000000D+00  0.000000D+00  0.000000D+00
     86  0.000000D+00  0.000000D+00  0.000000D+00  0.000000D+00  0.000000D+00
     87  0.000000D+00  0.000000D+00  0.000000D+00  0.000000D+00  0.000000D+00
     88  0.000000D+00  0.000000D+00  0.000000D+00  0.000000D+00  0.000000D+00
     89  0.000000D+00  0.000000D+00  0.000000D+00  0.000000D+00  0.000000D+00
     90  0.000000D+00  0.000000D+00  0.000000D+00  0.000000D+00  0.000000D+00
     91  0.000000D+00  0.000000D+00  0.000000D+00  0.000000D+00  0.000000D+00
     92  0.000000D+00  0.000000D+00  0.000000D+00  0.000000D+00  0.000000D+00
     93  0.000000D+00  0.000000D+00 -0.126136D-05  0.000000D+00  0.000000D+00
     94  0.000000D+00  0.000000D+00  0.000000D+00  0.000000D+00  0.000000D+00
     95  0.000000D+00  0.000000D+00  0.000000D+00  0.000000D+00  0.000000D+00
     96  0.000000D+00  0.000000D+00  0.123996D-05  0.000000D+00  0.000000D+00
               31            32            33            34            35
     31  0.100000D+01
     32  0.000000D+00  0.100000D+01
     33  0.000000D+00  0.000000D+00  0.100000D+01
     34  0.000000D+00  0.000000D+00  0.000000D+00  0.100000D+01
     35  0.148670D-01  0.000000D+00  0.000000D+00  0.000000D+00  0.100000D+01
     36  0.000000D+00  0.460693D-01 -0.541424D-01  0.236809D-01  0.000000D+00
     37  0.000000D+00  0.106158D-02 -0.152547D-02 -0.518016D-04  0.000000D+00
     38  0.000000D+00  0.418191D+00  0.363503D+00 -0.212233D+00  0.000000D+00
     39  0.000000D+00 -0.363503D+00 -0.180916D+00  0.253964D+00  0.000000D+00
     40  0.000000D+00  0.212233D+00  0.253964D+00  0.105783D+00  0.000000D+00
     41  0.340838D-01  0.000000D+00  0.000000D+00  0.000000D+00  0.254061D+00
     42  0.000000D+00  0.862716D-01  0.551952D-01 -0.980144D-01  0.000000D+00
     43  0.000000D+00 -0.551952D-01 -0.800824D-02  0.747480D-01  0.000000D+00
     44  0.000000D+00  0.980144D-01  0.747480D-01 -0.986508D-01  0.000000D+00
     45  0.254057D+00  0.000000D+00  0.000000D+00  0.000000D+00  0.340849D-01
     46  0.000000D+00  0.520189D+00 -0.123695D-02  0.489247D+00  0.000000D+00
     47  0.000000D+00  0.122079D+00  0.147806D+00 -0.108757D-01  0.000000D+00
     48  0.000000D+00  0.129870D-01  0.109269D-01 -0.135624D-01  0.000000D+00
     49  0.000000D+00  0.000000D+00  0.000000D+00  0.000000D+00  0.000000D+00
     50  0.000000D+00  0.000000D+00  0.000000D+00  0.000000D+00  0.000000D+00
     51  0.000000D+00  0.000000D+00  0.000000D+00  0.000000D+00  0.000000D+00
     52  0.000000D+00  0.000000D+00  0.000000D+00  0.000000D+00  0.000000D+00
     53  0.000000D+00  0.000000D+00  0.000000D+00  0.000000D+00  0.000000D+00
     54  0.000000D+00  0.000000D+00  0.000000D+00  0.000000D+00  0.000000D+00
     55  0.000000D+00  0.000000D+00  0.000000D+00  0.000000D+00  0.000000D+00
     56  0.000000D+00  0.000000D+00  0.000000D+00  0.000000D+00  0.000000D+00
     57  0.122581D-05  0.000000D+00  0.000000D+00  0.000000D+00  0.000000D+00
     58  0.000000D+00  0.000000D+00  0.000000D+00  0.000000D+00  0.000000D+00
     59  0.000000D+00  0.000000D+00  0.000000D+00  0.000000D+00  0.000000D+00
     60 -0.184678D-05  0.000000D+00  0.000000D+00  0.000000D+00  0.000000D+00
     61  0.000000D+00  0.000000D+00  0.000000D+00  0.000000D+00  0.122580D-05
     62  0.000000D+00  0.000000D+00  0.000000D+00  0.000000D+00  0.000000D+00
     63  0.000000D+00  0.000000D+00  0.000000D+00  0.000000D+00  0.000000D+00
     64  0.000000D+00 -0.122580D-05  0.000000D+00  0.000000D+00 -0.184676D-05
     65  0.000000D+00  0.000000D+00  0.000000D+00  0.000000D+00  0.000000D+00
     66  0.000000D+00  0.000000D+00  0.000000D+00  0.000000D+00  0.000000D+00
     67  0.000000D+00  0.000000D+00  0.000000D+00  0.000000D+00  0.000000D+00
     68  0.000000D+00  0.000000D+00  0.000000D+00  0.000000D+00  0.000000D+00
     69  0.000000D+00  0.000000D+00  0.000000D+00  0.000000D+00  0.000000D+00
     70  0.000000D+00  0.000000D+00  0.000000D+00  0.000000D+00  0.000000D+00
     71  0.000000D+00  0.000000D+00  0.000000D+00  0.000000D+00  0.000000D+00
     72  0.000000D+00  0.000000D+00  0.000000D+00  0.000000D+00  0.000000D+00
     73  0.368970D-05  0.000000D+00  0.000000D+00  0.000000D+00  0.000000D+00
     74  0.000000D+00  0.000000D+00  0.000000D+00  0.000000D+00  0.000000D+00
     75  0.104117D-05  0.000000D+00  0.000000D+00  0.000000D+00  0.000000D+00
     76  0.195156D-05  0.000000D+00  0.000000D+00  0.000000D+00  0.000000D+00
     77  0.000000D+00  0.000000D+00  0.000000D+00  0.000000D+00  0.000000D+00
     78  0.000000D+00  0.000000D+00  0.000000D+00  0.000000D+00  0.000000D+00
     79 -0.302143D-05  0.000000D+00  0.000000D+00  0.000000D+00  0.000000D+00
     80  0.000000D+00  0.126581D-05  0.000000D+00  0.000000D+00  0.195156D-05
     81  0.000000D+00  0.000000D+00  0.000000D+00  0.000000D+00  0.000000D+00
     82  0.000000D+00  0.000000D+00  0.000000D+00  0.000000D+00  0.000000D+00
     83  0.000000D+00 -0.195156D-05  0.000000D+00  0.000000D+00 -0.302143D-05
     84  0.000000D+00  0.000000D+00  0.000000D+00  0.000000D+00  0.104116D-05
     85  0.000000D+00  0.000000D+00  0.000000D+00  0.000000D+00  0.000000D+00
     86  0.000000D+00  0.000000D+00  0.000000D+00  0.000000D+00  0.126137D-05
     87  0.000000D+00  0.000000D+00  0.000000D+00  0.000000D+00  0.000000D+00
     88  0.000000D+00  0.000000D+00  0.000000D+00  0.000000D+00  0.000000D+00
     89  0.000000D+00 -0.126137D-05  0.000000D+00  0.000000D+00 -0.190352D-05
     90  0.126136D-05  0.000000D+00  0.000000D+00  0.000000D+00  0.000000D+00
     91  0.000000D+00  0.000000D+00  0.000000D+00  0.000000D+00  0.000000D+00
     92  0.000000D+00  0.000000D+00  0.000000D+00  0.000000D+00  0.000000D+00
     93 -0.190351D-05  0.000000D+00  0.000000D+00  0.000000D+00  0.000000D+00
     94  0.000000D+00  0.240758D-05  0.000000D+00  0.000000D+00  0.368969D-05
     95  0.000000D+00  0.123997D-05  0.000000D+00  0.000000D+00  0.183786D-05
     96  0.183784D-05  0.000000D+00  0.000000D+00  0.000000D+00  0.000000D+00
               36            37            38            39            40
     36  0.100000D+01
     37  0.627504D-01  0.100000D+01
     38  0.333994D-02  0.635641D-04  0.100000D+01
     39 -0.419337D-02 -0.960274D-04  0.000000D+00  0.100000D+01
     40  0.203276D-02  0.887436D-05  0.000000D+00  0.000000D+00  0.100000D+01
     41  0.000000D+00  0.000000D+00  0.000000D+00  0.000000D+00  0.000000D+00
     42  0.615279D-03  0.303534D-04  0.398147D+00 -0.287640D-05 -0.407575D+00
     43 -0.675957D-03 -0.440336D-04  0.287640D-05  0.237410D+00 -0.401758D-05
     44  0.588257D-03  0.148049D-04  0.407575D+00 -0.401758D-05 -0.331866D+00
     45  0.000000D+00  0.000000D+00  0.000000D+00  0.000000D+00  0.000000D+00
     46  0.615655D-01  0.880781D-03  0.121261D+00 -0.818766D-01  0.122433D+00
     47  0.880733D-03  0.101296D-04  0.520720D+00  0.425567D+00  0.241943D+00
     48  0.701841D-04  0.333034D-05  0.116093D+00  0.615788D-01 -0.127368D+00
     49  0.000000D+00  0.120803D-05  0.000000D+00  0.000000D+00  0.000000D+00
     50  0.000000D+00  0.000000D+00  0.000000D+00  0.000000D+00  0.000000D+00
     51  0.000000D+00  0.000000D+00  0.000000D+00  0.000000D+00  0.000000D+00
     52  0.000000D+00 -0.178817D-05  0.000000D+00  0.000000D+00  0.000000D+00
     53  0.000000D+00  0.000000D+00  0.000000D+00  0.000000D+00  0.000000D+00
     54  0.000000D+00  0.000000D+00  0.000000D+00  0.000000D+00  0.000000D+00
     55  0.000000D+00  0.000000D+00  0.000000D+00  0.000000D+00  0.000000D+00
     56  0.000000D+00  0.000000D+00  0.000000D+00  0.000000D+00  0.000000D+00
     57  0.000000D+00  0.000000D+00  0.000000D+00  0.000000D+00  0.000000D+00
     58  0.000000D+00  0.000000D+00  0.000000D+00  0.000000D+00  0.000000D+00
     59  0.000000D+00  0.000000D+00  0.000000D+00  0.000000D+00  0.000000D+00
     60  0.000000D+00  0.000000D+00  0.000000D+00  0.000000D+00  0.000000D+00
     61  0.121353D-05  0.000000D+00  0.000000D+00  0.000000D+00  0.000000D+00
     62  0.000000D+00  0.000000D+00  0.000000D+00  0.000000D+00  0.000000D+00
     63  0.000000D+00  0.000000D+00  0.000000D+00  0.000000D+00  0.000000D+00
     64 -0.179672D-05  0.000000D+00  0.000000D+00  0.000000D+00  0.000000D+00
     65  0.240758D-05  0.123997D-05  0.000000D+00  0.000000D+00  0.000000D+00
     66  0.000000D+00  0.000000D+00  0.000000D+00  0.000000D+00  0.000000D+00
     67  0.000000D+00  0.000000D+00  0.000000D+00  0.000000D+00  0.000000D+00
     68 -0.368969D-05 -0.183786D-05  0.000000D+00  0.000000D+00  0.000000D+00
     69  0.123568D-05  0.240857D-05  0.000000D+00  0.000000D+00  0.000000D+00
     70  0.000000D+00  0.000000D+00  0.000000D+00  0.000000D+00  0.000000D+00
     71  0.000000D+00  0.000000D+00  0.000000D+00  0.000000D+00  0.000000D+00
     72 -0.183118D-05 -0.369129D-05  0.000000D+00  0.000000D+00  0.000000D+00
     73  0.000000D+00  0.000000D+00  0.000000D+00  0.000000D+00  0.000000D+00
     74  0.000000D+00  0.184699D-05  0.000000D+00  0.000000D+00  0.000000D+00
     75  0.000000D+00  0.000000D+00  0.000000D+00  0.000000D+00  0.000000D+00
     76  0.000000D+00  0.000000D+00  0.000000D+00  0.000000D+00  0.000000D+00
     77  0.000000D+00  0.000000D+00  0.000000D+00  0.000000D+00  0.000000D+00
     78  0.000000D+00  0.000000D+00  0.000000D+00  0.000000D+00  0.000000D+00
     79  0.000000D+00  0.000000D+00  0.000000D+00  0.000000D+00  0.000000D+00
     80  0.000000D+00  0.000000D+00  0.000000D+00  0.000000D+00  0.000000D+00
     81  0.000000D+00  0.000000D+00  0.000000D+00  0.000000D+00  0.000000D+00
     82  0.000000D+00  0.000000D+00  0.000000D+00  0.000000D+00  0.000000D+00
     83 -0.104116D-05  0.000000D+00 -0.126137D-05  0.000000D+00  0.000000D+00
     84  0.553977D-05  0.187734D-05  0.000000D+00  0.000000D+00  0.000000D+00
     85  0.187734D-05  0.553977D-05  0.000000D+00  0.000000D+00  0.000000D+00
     86  0.000000D+00  0.000000D+00  0.126581D-05  0.000000D+00  0.000000D+00
     87  0.000000D+00  0.000000D+00  0.000000D+00  0.000000D+00  0.000000D+00
     88  0.000000D+00  0.000000D+00  0.000000D+00  0.000000D+00  0.000000D+00
     89  0.000000D+00  0.000000D+00 -0.195156D-05  0.000000D+00  0.000000D+00
     90  0.000000D+00  0.000000D+00  0.000000D+00  0.000000D+00  0.000000D+00
     91  0.000000D+00  0.000000D+00  0.000000D+00  0.000000D+00  0.000000D+00
     92  0.000000D+00  0.000000D+00  0.000000D+00  0.000000D+00  0.000000D+00
     93  0.000000D+00  0.000000D+00 -0.122915D-05  0.000000D+00  0.000000D+00
     94  0.185847D-05  0.000000D+00  0.123566D-05  0.000000D+00  0.000000D+00
     95  0.000000D+00  0.000000D+00  0.240855D-05  0.000000D+00  0.000000D+00
     96  0.000000D+00  0.000000D+00  0.120802D-05  0.000000D+00  0.000000D+00
               41            42            43            44            45
     41  0.100000D+01
     42  0.000000D+00  0.100000D+01
     43  0.000000D+00  0.000000D+00  0.100000D+01
     44  0.000000D+00  0.000000D+00  0.000000D+00  0.100000D+01
     45  0.237410D+00  0.000000D+00  0.000000D+00  0.000000D+00  0.100000D+01
     46  0.000000D+00  0.126731D-01 -0.593720D-02  0.159385D-01  0.000000D+00
     47  0.000000D+00  0.116092D+00  0.615791D-01  0.127366D+00  0.000000D+00
     48  0.000000D+00  0.520719D+00  0.425567D+00 -0.241944D+00  0.000000D+00
     49  0.000000D+00  0.000000D+00  0.000000D+00  0.000000D+00  0.000000D+00
     50  0.000000D+00  0.000000D+00  0.000000D+00  0.000000D+00  0.000000D+00
     51  0.000000D+00  0.000000D+00  0.000000D+00  0.000000D+00  0.000000D+00
     52  0.000000D+00  0.000000D+00  0.000000D+00  0.000000D+00  0.000000D+00
     53  0.000000D+00  0.000000D+00  0.000000D+00  0.000000D+00  0.000000D+00
     54  0.000000D+00  0.000000D+00  0.000000D+00  0.000000D+00  0.000000D+00
     55  0.000000D+00  0.000000D+00  0.000000D+00  0.000000D+00  0.000000D+00
     56  0.000000D+00  0.000000D+00  0.000000D+00  0.000000D+00  0.000000D+00
     57  0.000000D+00  0.000000D+00  0.000000D+00  0.000000D+00  0.000000D+00
     58  0.000000D+00  0.000000D+00  0.000000D+00  0.000000D+00  0.000000D+00
     59  0.000000D+00  0.000000D+00  0.000000D+00  0.000000D+00  0.000000D+00
     60  0.000000D+00  0.000000D+00  0.000000D+00  0.000000D+00  0.000000D+00
     61  0.000000D+00  0.000000D+00  0.000000D+00  0.000000D+00  0.000000D+00
     62  0.000000D+00  0.000000D+00  0.000000D+00  0.000000D+00  0.000000D+00
     63  0.000000D+00  0.000000D+00  0.000000D+00  0.000000D+00  0.000000D+00
     64  0.000000D+00  0.000000D+00  0.000000D+00  0.000000D+00  0.000000D+00
     65  0.000000D+00  0.000000D+00  0.000000D+00  0.000000D+00  0.000000D+00
     66  0.000000D+00  0.000000D+00  0.000000D+00  0.000000D+00  0.000000D+00
     67  0.000000D+00  0.000000D+00  0.000000D+00  0.000000D+00  0.000000D+00
     68  0.000000D+00  0.000000D+00  0.000000D+00  0.000000D+00  0.000000D+00
     69  0.000000D+00  0.000000D+00  0.000000D+00  0.000000D+00  0.000000D+00
     70  0.000000D+00  0.000000D+00  0.000000D+00  0.000000D+00  0.000000D+00
     71  0.000000D+00  0.000000D+00  0.000000D+00  0.000000D+00  0.000000D+00
     72  0.000000D+00  0.000000D+00  0.000000D+00  0.000000D+00  0.000000D+00
     73  0.000000D+00  0.123568D-05  0.000000D+00  0.000000D+00  0.183119D-05
     74  0.000000D+00  0.000000D+00  0.000000D+00  0.000000D+00  0.000000D+00
     75  0.000000D+00  0.000000D+00  0.000000D+00  0.000000D+00  0.000000D+00
     76  0.000000D+00  0.000000D+00  0.000000D+00  0.000000D+00  0.126136D-05
     77  0.000000D+00  0.000000D+00  0.000000D+00  0.000000D+00  0.000000D+00
     78  0.000000D+00  0.000000D+00  0.000000D+00  0.000000D+00  0.000000D+00
     79  0.000000D+00 -0.126136D-05  0.000000D+00  0.000000D+00 -0.190351D-05
     80  0.126137D-05  0.000000D+00  0.000000D+00  0.000000D+00  0.000000D+00
     81  0.000000D+00  0.000000D+00  0.000000D+00  0.000000D+00  0.000000D+00
     82  0.000000D+00  0.000000D+00  0.000000D+00  0.000000D+00  0.000000D+00
     83 -0.190352D-05  0.000000D+00  0.000000D+00  0.000000D+00  0.000000D+00
     84  0.000000D+00  0.000000D+00  0.000000D+00  0.000000D+00  0.000000D+00
     85  0.000000D+00  0.000000D+00  0.000000D+00  0.000000D+00  0.000000D+00
     86  0.195156D-05  0.000000D+00  0.000000D+00  0.000000D+00  0.122915D-05
     87  0.000000D+00  0.000000D+00  0.000000D+00  0.000000D+00  0.000000D+00
     88  0.000000D+00  0.000000D+00  0.000000D+00  0.000000D+00  0.000000D+00
     89 -0.302143D-05 -0.122915D-05  0.000000D+00  0.000000D+00 -0.185209D-05
     90  0.122915D-05  0.126581D-05  0.000000D+00  0.000000D+00  0.195156D-05
     91  0.000000D+00  0.000000D+00  0.000000D+00  0.000000D+00  0.000000D+00
     92  0.000000D+00  0.000000D+00  0.000000D+00  0.000000D+00  0.000000D+00
     93 -0.185209D-05 -0.195156D-05  0.000000D+00  0.000000D+00 -0.302143D-05
     94  0.183116D-05  0.000000D+00  0.000000D+00  0.000000D+00  0.000000D+00
     95  0.369126D-05  0.120801D-05  0.000000D+00  0.000000D+00  0.178815D-05
     96  0.178816D-05  0.240855D-05  0.000000D+00  0.000000D+00  0.369126D-05
               46            47            48            49            50
     46  0.100000D+01
     47  0.627472D-01  0.100000D+01
     48  0.233174D-02  0.608514D-01  0.100000D+01
     49  0.000000D+00  0.000000D+00  0.000000D+00  0.100000D+01
     50  0.000000D+00  0.000000D+00  0.000000D+00  0.000000D+00  0.100000D+01
     51  0.000000D+00  0.000000D+00  0.000000D+00  0.000000D+00  0.000000D+00
     52  0.000000D+00  0.000000D+00  0.000000D+00  0.000000D+00  0.000000D+00
     53  0.000000D+00  0.000000D+00  0.000000D+00  0.418191D+00  0.363502D+00
     54  0.000000D+00  0.000000D+00  0.000000D+00 -0.363502D+00 -0.180916D+00
     55  0.000000D+00  0.000000D+00  0.000000D+00  0.212233D+00  0.253964D+00
     56  0.000000D+00  0.000000D+00  0.000000D+00  0.000000D+00  0.000000D+00
     57  0.000000D+00  0.000000D+00  0.000000D+00  0.846391D-01  0.110523D+00
     58  0.000000D+00  0.000000D+00  0.000000D+00 -0.110523D+00 -0.138570D+00
     59  0.000000D+00  0.000000D+00  0.000000D+00  0.382034D-03  0.594126D-03
     60  0.000000D+00  0.000000D+00  0.000000D+00  0.000000D+00  0.000000D+00
     61  0.121353D-05  0.000000D+00  0.000000D+00  0.416121D-01  0.490741D-01
     62  0.000000D+00  0.000000D+00  0.000000D+00 -0.490741D-01 -0.527411D-01
     63  0.000000D+00  0.000000D+00  0.000000D+00 -0.287429D-01 -0.393103D-01
     64 -0.179673D-05  0.000000D+00  0.000000D+00  0.000000D+00  0.000000D+00
     65  0.000000D+00  0.000000D+00  0.000000D+00  0.862706D-01  0.551960D-01
     66  0.000000D+00  0.000000D+00  0.000000D+00 -0.551960D-01 -0.801020D-02
     67  0.000000D+00  0.000000D+00  0.000000D+00 -0.980127D-01 -0.747485D-01
     68 -0.104118D-05  0.000000D+00  0.000000D+00  0.000000D+00  0.000000D+00
     69  0.000000D+00  0.000000D+00  0.000000D+00  0.398147D+00  0.000000D+00
     70  0.000000D+00  0.000000D+00  0.000000D+00  0.000000D+00  0.237410D+00
     71  0.000000D+00  0.000000D+00  0.000000D+00 -0.407575D+00  0.000000D+00
     72  0.000000D+00  0.000000D+00  0.000000D+00  0.000000D+00  0.000000D+00
     73  0.000000D+00  0.000000D+00  0.187733D-05  0.333994D-02  0.419336D-02
     74  0.000000D+00  0.000000D+00  0.000000D+00  0.520724D+00 -0.425568D+00
     75  0.000000D+00  0.000000D+00  0.000000D+00  0.121262D+00  0.818767D-01
     76  0.000000D+00  0.000000D+00  0.123996D-05  0.632579D-02  0.913905D-02
     77  0.000000D+00  0.000000D+00  0.000000D+00 -0.913905D-02 -0.130801D-01
     78  0.000000D+00  0.000000D+00  0.000000D+00  0.172452D-02  0.278265D-02
     79  0.000000D+00  0.000000D+00 -0.183784D-05  0.000000D+00  0.000000D+00
     80  0.240758D-05  0.123997D-05  0.000000D+00  0.207463D-02  0.271691D-02
     81  0.000000D+00  0.000000D+00  0.000000D+00 -0.271691D-02 -0.344846D-02
     82  0.000000D+00  0.000000D+00  0.000000D+00 -0.155926D-02 -0.225274D-02
     83 -0.368969D-05 -0.183786D-05  0.000000D+00  0.000000D+00  0.000000D+00
     84  0.185847D-05  0.000000D+00  0.000000D+00  0.126733D-01  0.593732D-02
     85  0.000000D+00  0.000000D+00  0.000000D+00  0.116094D+00 -0.615787D-01
[...]
    22  C    0.000000   0.000000   0.000000   0.000000   0.000000   0.000000
    23  C    0.000000   0.000000   0.000000   0.000000   0.000000   0.000000
    24  C    0.000000   0.000000   0.000000   0.000000   0.000000   0.000000
    25  H    0.000000   0.000000   0.000000   0.000000   0.000000   0.000000
    26  H    0.000000   0.000000   0.000000   0.000000   0.000000   0.000000
    27  H    0.000000   0.000000   0.000000   0.000000   0.000000   0.000000
    28  C    0.000000   0.000000   0.000000   0.000000   0.000000   0.000000
    29  C    0.000000   0.000000   0.000000   0.000000   0.000000   0.000000
    30  H    0.000000   0.000000   0.000000   0.000000   0.000000   0.000000
    31  H    0.000000   0.000000   0.000000   0.000000   0.000000   0.000000
    32  C    0.000000   0.000000   0.000000   0.000000   0.000000   0.000000
    33  C    0.000000   0.000000   0.000000   0.000000   0.000000   0.000000
    34  H    0.000000   0.000000   0.000000   0.000000   0.000000   0.000000
    35  H    0.000000   0.000000   0.000000   0.000000   0.000000   0.000000
    36  H    0.000000   0.000000   0.000000   0.000000   0.000000   0.000000
              7          8          9         10         11         12
     1  C    0.000000   0.000000   0.000000   0.000000   0.000000   0.000000
     2  C    0.000000   0.000000   0.000000   0.000000   0.000000   0.000000
     3  C    0.000000   0.000000   0.000000   0.000000   0.000000   0.000000
     4  C    0.000000   0.000000   0.000000   0.000000   0.000000   0.000000
     5  C    0.000000   0.000000   0.000000   0.000000   0.000000   0.000000
     6  C    0.000000   0.000000   0.000000   0.000000   0.000000   0.000000
     7  H    0.967972   0.000000   0.000000   0.000000   0.000000   0.000000
     8  H    0.000000   0.967420   0.000000   0.000000   0.000000   0.000000
     9  H    0.000000   0.000000   0.967973   0.000000   0.000000   0.000000
    10  C    0.000000   0.000000   0.000000   4.037341   0.000000   0.000000
    11  C    0.000000   0.000000   0.000000   0.000000   4.037341   0.000000
    12  H    0.000000   0.000000   0.000000   0.000000   0.000000   0.967975
    13  H    0.000000   0.000000   0.000000   0.000000   0.000000   0.000000
    14  C    0.000000   0.000000   0.000000   0.000000   0.000000   0.000000
    15  C    0.000000   0.000000   0.000000   0.000000   0.000000   0.000000
    16  H    0.000000   0.000000   0.000000   0.000000   0.000000   0.000000
    17  H    0.000000   0.000000   0.000000   0.000000   0.000000   0.000000
    18  H    0.000000   0.000000   0.000000   0.000000   0.000000   0.000000
    19  C    0.000000   0.000000   0.000000   0.000000   0.000000   0.000000
    20  C    0.000000   0.000000   0.000000   0.000000   0.000000   0.000000
    21  C    0.000000   0.000000   0.000000   0.000000   0.000000   0.000000
    22  C    0.000000   0.000000   0.000000   0.000000   0.000000   0.000000
    23  C    0.000000   0.000000   0.000000   0.000000   0.000000   0.000000
    24  C    0.000000   0.000000   0.000000   0.000000   0.000000   0.000000
    25  H    0.000000   0.000000   0.000000   0.000000   0.000000   0.000000
    26  H    0.000000   0.000000   0.000000   0.000000   0.000000   0.000000
    27  H    0.000000   0.000000   0.000000   0.000000   0.000000   0.000000
    28  C    0.000000   0.000000   0.000000   0.000000   0.000000   0.000000
    29  C    0.000000   0.000000   0.000000   0.000000   0.000000   0.000000
    30  H    0.000000   0.000000   0.000000   0.000000   0.000000   0.000000
    31  H    0.000000   0.000000   0.000000   0.000000   0.000000   0.000000
    32  C    0.000000   0.000000   0.000000   0.000000   0.000000   0.000000
    33  C    0.000000   0.000000   0.000000   0.000000   0.000000   0.000000
    34  H    0.000000   0.000000   0.000000   0.000000   0.000000   0.000000
    35  H    0.000000   0.000000   0.000000   0.000000   0.000000   0.000000
    36  H    0.000000   0.000000   0.000000   0.000000   0.000000   0.000000
             13         14         15         16         17         18
     1  C    0.000000   0.000000   0.000000   0.000000   0.000000   0.000000
     2  C    0.000000   0.000000   0.000000   0.000000   0.000000   0.000000
     3  C    0.000000   0.000000   0.000000   0.000000   0.000000   0.000000
     4  C    0.000000   0.000000   0.000000   0.000000   0.000000   0.000000
     5  C    0.000000   0.000000   0.000000   0.000000   0.000000   0.000000
     6  C    0.000000   0.000000   0.000000   0.000000   0.000000   0.000000
     7  H    0.000000   0.000000   0.000000   0.000000   0.000000   0.000000
     8  H    0.000000   0.000000   0.000000   0.000000   0.000000   0.000000
     9  H    0.000000   0.000000   0.000000   0.000000   0.000000   0.000000
    10  C    0.000000   0.000000   0.000000   0.000000   0.000000   0.000000
    11  C    0.000000   0.000000   0.000000   0.000000   0.000000   0.000000
    12  H    0.000000   0.000000   0.000000   0.000000   0.000000   0.000000
    13  H    0.967417   0.000000   0.000000   0.000000   0.000000   0.000000
    14  C    0.000000   4.034731   0.000000   0.000000   0.000000   0.000000
    15  C    0.000000   0.000000   4.034734   0.000000   0.000000   0.000000
    16  H    0.000000   0.000000   0.000000   0.967973   0.000000   0.000000
    17  H    0.000000   0.000000   0.000000   0.000000   0.967420   0.000000
    18  H    0.000000   0.000000   0.000000   0.000000   0.000000   0.967421
    19  C    0.000000   0.000000   0.000000   0.000000   0.000000   0.000000
    20  C    0.000000   0.000000   0.000000   0.000000   0.000000   0.000000
    21  C    0.000000   0.000000   0.000000   0.000000   0.000000   0.000000
    22  C    0.000000   0.000000   0.000000   0.000000   0.000000   0.000000
    23  C    0.000000   0.000000   0.000000   0.000000   0.000000   0.000000
    24  C    0.000000   0.000000   0.000000   0.000000   0.000000   0.000000
    25  H    0.000000   0.000000   0.000000   0.000000   0.000000   0.000000
    26  H    0.000000   0.000000   0.000000   0.000000   0.000000   0.000000
    27  H    0.000000   0.000000   0.000000   0.000000   0.000000   0.000000
    28  C    0.000000   0.000000   0.000000   0.000000   0.000000   0.000000
    29  C    0.000000   0.000000   0.000000   0.000000   0.000000   0.000000
    30  H    0.000000   0.000000   0.000000   0.000000   0.000000   0.000000
    31  H    0.000000   0.000000   0.000000   0.000000   0.000000   0.000000
    32  C    0.000000   0.000000   0.000000   0.000000   0.000000   0.000000
    33  C    0.000000   0.000000   0.000000   0.000000   0.000000   0.000000
    34  H    0.000000   0.000000   0.000000   0.000000   0.000000   0.000000
    35  H    0.000000   0.000000   0.000000   0.000000   0.000000   0.000000
    36  H    0.000000   0.000000   0.000000   0.000000   0.000000   0.000000
             19         20         21         22         23         24
     1  C    0.000000   0.000000   0.000000   0.000000   0.000000   0.000000
     2  C    0.000000   0.000000   0.000000   0.000000   0.000000   0.000000
     3  C    0.000000   0.000000   0.000000   0.000000   0.000000   0.000000
     4  C    0.000000   0.000000   0.000000   0.000000   0.000000   0.000000
     5  C    0.000000   0.000000   0.000000   0.000000   0.000000   0.000000
     6  C    0.000000   0.000000   0.000000   0.000000   0.000000   0.000000
     7  H    0.000000   0.000000   0.000000   0.000000   0.000000   0.000000
     8  H    0.000000   0.000000   0.000000   0.000000   0.000000   0.000000
     9  H    0.000000   0.000000   0.000000   0.000000   0.000000   0.000000
    10  C    0.000000   0.000000   0.000000   0.000000   0.000000   0.000000
    11  C    0.000000   0.000000   0.000000   0.000000   0.000000   0.000000
    12  H    0.000000   0.000000   0.000000   0.000000   0.000000   0.000000
    13  H    0.000000   0.000000   0.000000   0.000000   0.000000   0.000000
    14  C    0.000000   0.000000   0.000000   0.000000   0.000000   0.000000
    15  C    0.000000   0.000000   0.000000   0.000000   0.000000   0.000000
    16  H    0.000000   0.000000   0.000000   0.000000   0.000000   0.000000
    17  H    0.000000   0.000000   0.000000   0.000000   0.000000   0.000000
    18  H    0.000000   0.000000   0.000000   0.000000   0.000000   0.000000
    19  C    4.034731   0.000000   0.000000   0.000000   0.000000   0.000000
    20  C    0.000000   4.037343   0.000000   0.000000   0.000000   0.000000
    21  C    0.000000   0.000000   3.985065   0.000000   0.000000   0.000000
    22  C    0.000000   0.000000   0.000000   3.985065   0.000000   0.000000
    23  C    0.000000   0.000000   0.000000   0.000000   4.037340   0.000000
    24  C    0.000000   0.000000   0.000000   0.000000   0.000000   4.034736
    25  H    0.000000   0.000000   0.000000   0.000000   0.000000   0.000000
    26  H    0.000000   0.000000   0.000000   0.000000   0.000000   0.000000
    27  H    0.000000   0.000000   0.000000   0.000000   0.000000   0.000000
    28  C    0.000000   0.000000   0.000000   0.000000   0.000000   0.000000
    29  C    0.000000   0.000000   0.000000   0.000000   0.000000   0.000000
    30  H    0.000000   0.000000   0.000000   0.000000   0.000000   0.000000
    31  H    0.000000   0.000000   0.000000   0.000000   0.000000   0.000000
    32  C    0.000000   0.000000   0.000000   0.000000   0.000000   0.000000
    33  C    0.000000   0.000000   0.000000   0.000000   0.000000   0.000000
    34  H    0.000000   0.000000   0.000000   0.000000   0.000000   0.000000
    35  H    0.000000   0.000000   0.000000   0.000000   0.000000   0.000000
    36  H    0.000000   0.000000   0.000000   0.000000   0.000000   0.000000
             25         26         27         28         29         30
     1  C    0.000000   0.000000   0.000000   0.000000   0.000000   0.000000
     2  C    0.000000   0.000000   0.000000   0.000000   0.000000   0.000000
     3  C    0.000000   0.000000   0.000000   0.000000   0.000000   0.000000
     4  C    0.000000   0.000000   0.000000   0.000000   0.000000   0.000000
     5  C    0.000000   0.000000   0.000000   0.000000   0.000000   0.000000
     6  C    0.000000   0.000000   0.000000   0.000000   0.000000   0.000000
     7  H    0.000000   0.000000   0.000000   0.000000   0.000000   0.000000
     8  H    0.000000   0.000000   0.000000   0.000000   0.000000   0.000000
     9  H    0.000000   0.000000   0.000000   0.000000   0.000000   0.000000
    10  C    0.000000   0.000000   0.000000   0.000000   0.000000   0.000000
    11  C    0.000000   0.000000   0.000000   0.000000   0.000000   0.000000
    12  H    0.000000   0.000000   0.000000   0.000000   0.000000   0.000000
    13  H    0.000000   0.000000   0.000000   0.000000   0.000000   0.000000
    14  C    0.000000   0.000000   0.000000   0.000000   0.000000   0.000000
    15  C    0.000000   0.000000   0.000000   0.000000   0.000000   0.000000
    16  H    0.000000   0.000000   0.000000   0.000000   0.000000   0.000000
    17  H    0.000000   0.000000   0.000000   0.000000   0.000000   0.000000
    18  H    0.000000   0.000000   0.000000   0.000000   0.000000   0.000000
    19  C    0.000000   0.000000   0.000000   0.000000   0.000000   0.000000
    20  C    0.000000   0.000000   0.000000   0.000000   0.000000   0.000000
    21  C    0.000000   0.000000   0.000000   0.000000   0.000000   0.000000
    22  C    0.000000   0.000000   0.000000   0.000000   0.000000   0.000000
    23  C    0.000000   0.000000   0.000000   0.000000   0.000000   0.000000
    24  C    0.000000   0.000000   0.000000   0.000000   0.000000   0.000000
    25  H    0.967972   0.000000   0.000000   0.000000   0.000000   0.000000
    26  H    0.000000   0.967420   0.000000   0.000000   0.000000   0.000000
    27  H    0.000000   0.000000   0.967973   0.000000   0.000000   0.000000
    28  C    0.000000   0.000000   0.000000   4.037341   0.000000   0.000000
    29  C    0.000000   0.000000   0.000000   0.000000   4.037341   0.000000
    30  H    0.000000   0.000000   0.000000   0.000000   0.000000   0.967975
    31  H    0.000000   0.000000   0.000000   0.000000   0.000000   0.000000
    32  C    0.000000   0.000000   0.000000   0.000000   0.000000   0.000000
    33  C    0.000000   0.000000   0.000000   0.000000   0.000000   0.000000
    34  H    0.000000   0.000000   0.000000   0.000000   0.000000   0.000000
    35  H    0.000000   0.000000   0.000000   0.000000   0.000000   0.000000
    36  H    0.000000   0.000000   0.000000   0.000000   0.000000   0.000000
             31         32         33         34         35         36
     1  C    0.000000   0.000000   0.000000   0.000000   0.000000   0.000000
     2  C    0.000000   0.000000   0.000000   0.000000   0.000000   0.000000
     3  C    0.000000   0.000000   0.000000   0.000000   0.000000   0.000000
     4  C    0.000000   0.000000   0.000000   0.000000   0.000000   0.000000
     5  C    0.000000   0.000000   0.000000   0.000000   0.000000   0.000000
     6  C    0.000000   0.000000   0.000000   0.000000   0.000000   0.000000
     7  H    0.000000   0.000000   0.000000   0.000000   0.000000   0.000000
     8  H    0.000000   0.000000   0.000000   0.000000   0.000000   0.000000
     9  H    0.000000   0.000000   0.000000   0.000000   0.000000   0.000000
    10  C    0.000000   0.000000   0.000000   0.000000   0.000000   0.000000
    11  C    0.000000   0.000000   0.000000   0.000000   0.000000   0.000000
    12  H    0.000000   0.000000   0.000000   0.000000   0.000000   0.000000
    13  H    0.000000   0.000000   0.000000   0.000000   0.000000   0.000000
    14  C    0.000000   0.000000   0.000000   0.000000   0.000000   0.000000
    15  C    0.000000   0.000000   0.000000   0.000000   0.000000   0.000000
    16  H    0.000000   0.000000   0.000000   0.000000   0.000000   0.000000
    17  H    0.000000   0.000000   0.000000   0.000000   0.000000   0.000000
    18  H    0.000000   0.000000   0.000000   0.000000   0.000000   0.000000
    19  C    0.000000   0.000000   0.000000   0.000000   0.000000   0.000000
    20  C    0.000000   0.000000   0.000000   0.000000   0.000000   0.000000
    21  C    0.000000   0.000000   0.000000   0.000000   0.000000   0.000000
    22  C    0.000000   0.000000   0.000000   0.000000   0.000000   0.000000
    23  C    0.000000   0.000000   0.000000   0.000000   0.000000   0.000000
    24  C    0.000000   0.000000   0.000000   0.000000   0.000000   0.000000
    25  H    0.000000   0.000000   0.000000   0.000000   0.000000   0.000000
    26  H    0.000000   0.000000   0.000000   0.000000   0.000000   0.000000
    27  H    0.000000   0.000000   0.000000   0.000000   0.000000   0.000000
    28  C    0.000000   0.000000   0.000000   0.000000   0.000000   0.000000
    29  C    0.000000   0.000000   0.000000   0.000000   0.000000   0.000000
    30  H    0.000000   0.000000   0.000000   0.000000   0.000000   0.000000
    31  H    0.967417   0.000000   0.000000   0.000000   0.000000   0.000000
    32  C    0.000000   4.034731   0.000000   0.000000   0.000000   0.000000
    33  C    0.000000   0.000000   4.034734   0.000000   0.000000   0.000000
    34  H    0.000000   0.000000   0.000000   0.967973   0.000000   0.000000
    35  H    0.000000   0.000000   0.000000   0.000000   0.967420   0.000000
    36  H    0.000000   0.000000   0.000000   0.000000   0.000000   0.967421
 Mulliken atomic charges:
              1
     1  C   -0.034731
     2  C   -0.037343
     3  C    0.014935
     4  C    0.014935
     5  C   -0.037340
     6  C   -0.034736
     7  H    0.032028
     8  H    0.032580
     9  H    0.032027
    10  C   -0.037341
    11  C   -0.037341
    12  H    0.032025
    13  H    0.032583
    14  C   -0.034731
    15  C   -0.034734
    16  H    0.032027
    17  H    0.032580
    18  H    0.032579
    19  C   -0.034731
    20  C   -0.037343
    21  C    0.014935
    22  C    0.014935
    23  C   -0.037340
    24  C   -0.034736
    25  H    0.032028
    26  H    0.032580
    27  H    0.032027
    28  C   -0.037341
    29  C   -0.037341
    30  H    0.032025
    31  H    0.032583
    32  C   -0.034731
    33  C   -0.034734
    34  H    0.032027
    35  H    0.032580
    36  H    0.032579
 Sum of Mulliken charges=   0.00000
 Atomic charges with hydrogens summed into heavy atoms:
              1
     1  C   -0.002152
     2  C   -0.005316
     3  C    0.014935
     4  C    0.014935
     5  C   -0.005316
     6  C   -0.002153
     7  H    0.000000
     8  H    0.000000
     9  H    0.000000
    10  C   -0.005313
    11  C   -0.005314
    12  H    0.000000
    13  H    0.000000
    14  C   -0.002151
    15  C   -0.002155
    16  H    0.000000
    17  H    0.000000
    18  H    0.000000
    19  C   -0.002152
    20  C   -0.005316
    21  C    0.014935
    22  C    0.014935
    23  C   -0.005316
    24  C   -0.002153
    25  H    0.000000
    26  H    0.000000
    27  H    0.000000
    28  C   -0.005313
    29  C   -0.005314
    30  H    0.000000
    31  H    0.000000
    32  C   -0.002151
    33  C   -0.002155
    34  H    0.000000
    35  H    0.000000
    36  H    0.000000
 Sum of Mulliken charges=   0.00000
 Electronic spatial extent (au):  <R**2>= 17078.1493
 Charge=   -61.4283 electrons
 Dipole moment (field-independent basis, Debye):
    X=     0.0009    Y=     0.0003    Z= -1032.6848  Tot=  1032.6848
 Quadrupole moment (field-independent basis, Debye-Ang):
   XX= -1240.0999   YY=  -646.1591   ZZ= -7424.0939
   XY=    -0.0017   XZ=     0.0031   YZ=     0.0012
 Traceless Quadrupole moment (field-independent basis, Debye-Ang):
   XX=  1863.3511   YY=  2457.2919   ZZ= -4320.6430
   XY=    -0.0017   XZ=     0.0031   YZ=     0.0012
 Octapole moment (field-independent basis, Debye-Ang**2):
  XXX=     0.0094  YYY=     0.0027  ZZZ=-52652.2088  XYY=     0.0002
  XXY=    -0.0004  XXZ= -4340.3496  XZZ=     0.0217  YZZ=     0.0083
  YYZ= -2261.5568  XYZ=    -0.0059
 Hexadecapole moment (field-independent basis, Debye-Ang**3):
 XXXX=-10917.6195 YYYY= -3170.6717 ZZZZ=*********** XXXY=    -0.0170
 XXXZ=     0.0330 YYYX=    -0.0090 YYYZ=     0.0096 ZZZX=     0.1526
 ZZZY=     0.0584 XXYY= -2231.0801 XXZZ=-31108.3240 YYZZ=-16169.7621
 XXYZ=    -0.0015 YYXZ=     0.0007 ZZXY=    -0.0425
 N-N= 4.800721412317D+02 E-N= 0.000000000000D+00  KE=-1.134193539208D+03

 Test job not archived.
 1\1\GINC-RHUBARB\SP\RZINDO\STO-3G\C20H16\JK905\10-Oct-2007\0\\# ZINDO 
 PUNCH=MO IOP(3/33=1) NOSYMM\\04/10/07: Geometry from napthalene_b3lyp_
 of.log and reorientated to put long axi geometric centre on origin.\\0
 ,1\C,0,-2.4336,-0.70848,0.\C,0,-1.24478,-1.40258,0.\C,0,-0.0000018091,
 -0.716892,0.\C,0,0.0000023856,0.716891,0.\C,0,-1.24476,1.40257,0.\C,0,
 -2.4336,0.708481,0.\H,0,1.24204,-2.49027,0.\H,0,-3.37834,-1.24559,0.\H
 ,0,-1.24204,-2.49028,0.\C,0,1.24476,-1.40258,0.\C,0,1.24478,1.40258,0.
 \H,0,-1.24204,2.49027,0.\H,0,-3.37833,1.24559,0.\C,0,2.4336,0.708481,0
 .\C,0,2.43359,-0.70848,0.\H,0,1.24203,2.49028,0.\H,0,3.37835,1.24559,0
 .\H,0,3.37834,-1.24559,0.\C,0,-2.4336,-0.70848,7.\C,0,-1.24478,-1.4025
 8,7.\C,0,-0.0000018091,-0.716892,7.\C,0,0.0000023856,0.716891,7.\C,0,-
 1.24476,1.40257,7.\C,0,-2.4336,0.708481,7.\H,0,1.24204,-2.49027,7.\H,0
 ,-3.37834,-1.24559,7.\H,0,-1.24204,-2.49028,7.\C,0,1.24476,-1.40258,7.
 \C,0,1.24478,1.40258,7.\H,0,-1.24204,2.49027,7.\H,0,-3.37833,1.24559,7
 .\C,0,2.4336,0.708481,7.\C,0,2.43359,-0.70848,7.\H,0,1.24203,2.49028,7
 .\H,0,3.37835,1.24559,7.\H,0,3.37834,-1.24559,7.\\Version=x86_64-Linux
 -G03RevB.05\HF=-123.3543231\RMSD=1.250e-09\PG=CS [X(C20H16)]\\@


 LET US PLACE AT THE END OF EVERY CHAPTER.....THE
 TWO LETTERS USED BY THE ROMAN JUDGES WHEN THEY DID
 NOT UNDERSTAND A PLEADING.
 N. L. -NON LIQUET- IT IS NOT CLEAR.
                                              -- VOLTAIRE
 Job cpu time:  0 days  0 hours  0 minutes  3.9 seconds.
 File lengths (MBytes):  RWF=     36 Int=      0 D2E=      0 Chk=     11 Scr=      1
 Normal termination of Gaussian 03 at Wed Oct 10 10:15:25 2007.
